 &FCI NORB= 13,NELEC= 10,MS2= 0,
  ORBSYM=1,1,1,1,1,1,1,1,1,1,1,1,1,
  ISYM=0,
 /
  0.4739248671526463E+01   1   1   1   1
 -0.4196695567086693E+00   2   1   1   1
  0.6086926872601071E-01   2   1   2   1
  0.1027211947304388E+01   2   2   1   1
 -0.1241306194983199E-01   2   2   2   1
  0.7435331541740327E+00   2   2   2   2
  0.4286698220782453E-15   3   1   1   1
 -0.6083983550243463E-16   3   1   2   1
  0.1942754767822463E-16   3   1   2   2
  0.1872008107764168E-01   3   1   3   1
 -0.4115580624778140E-15   3   2   1   1
  0.1553797238443289E-16   3   2   2   1
 -0.1321371397716709E-15   3   2   2   2
  0.2207563575017134E-01   3   2   3   1
  0.1485804342856342E+00   3   2   3   2
  0.8601428319629750E+00   3   3   1   1
 -0.5980547143250928E-02   3   3   2   1
  0.6647897838115366E+00   3   3   2   2
 -0.1919037845299343E-16   3   3   3   1
 -0.5160802341031001E-16   3   3   3   2
  0.6485487606819561E+00   3   3   3   3
  0.1462108812947304E+00   4   1   1   1
 -0.1662865919994110E-01   4   1   2   1
  0.1543236341118769E-01   4   1   2   2
  0.3516203170642052E-16   4   1   3   1
  0.2642742795433417E-17   4   1   3   2
  0.5980755466943925E-02   4   1   3   3
  0.2891646977645902E-01   4   1   4   1
 -0.8697635153722870E-01   4   2   1   1
  0.8166781068579838E-02   4   2   2   1
  0.2089964967169150E-01   4   2   2   2
  0.6972775221797400E-17   4   2   3   1
 -0.6667843360785852E-16   4   2   3   2
  0.9974862643881895E-02   4   2   3   3
  0.2060442869139015E-01   4   2   4   1
  0.1148673606596216E+00   4   2   4   2
  0.4656689623681420E-15   4   3   1   1
 -0.1185846126156020E-16   4   3   2   1
  0.1299484066359657E-15   4   3   2   2
 -0.3977975038753550E-02   4   3   3   1
  0.1339194270460940E-01   4   3   3   2
  0.2133709875451473E-15   4   3   3   3
 -0.3215675880956226E-16   4   3   4   1
 -0.2268421995382797E-15   4   3   4   2
  0.4098864936564146E-01   4   3   4   3
  0.9635998554247277E+00   4   4   1   1
 -0.1270054319896960E-01   4   4   2   1
  0.6565794206769954E+00   4   4   2   2
 -0.2130457268934016E-16   4   4   3   1
 -0.3491130995403324E-15   4   4   3   2
  0.5917855654077564E+00   4   4   3   3
 -0.1099903764963231E-01   4   4   4   1
 -0.7990058784997571E-01   4   4   4   2
  0.2671474153004283E-15   4   4   4   3
  0.7212952053064637E+00   4   4   4   4
 -0.1534045233569470E-15   5   1   1   1
  0.3174279678289593E-16   5   1   2   1
  0.6914374530417890E-17   5   1   2   2
  0.6310203740998573E-17   5   1   3   1
  0.8112505254924133E-17   5   1   3   2
  0.1059690898910053E-16   5   1   3   3
  0.1454644048011556E-16   5   1   4   1
  0.2005653143055329E-16   5   1   4   2
 -0.6516817212123862E-18   5   1   4   3
  0.5522291622088715E-18   5   1   4   4
  0.2806696785540626E-01   5   1   5   1
  0.2008460610042418E-15   5   2   1   1
 -0.4980732488105403E-17   5   2   2   1
 -0.6669686523658167E-17   5   2   2   2
  0.5943503501952415E-17   5   2   3   1
  0.3874473843991589E-16   5   2   3   2
 -0.4405689247142440E-17   5   2   3   3
  0.2221924048253915E-16   5   2   4   1
  0.3132060479090247E-16   5   2   4   2
  0.4440740260951253E-17   5   2   4   3
  0.1947644972444629E-16   5   2   4   4
  0.2832632933565046E-01   5   2   5   1
  0.1261089040696713E+00   5   2   5   2
  0.2202715045461292E-15   5   3   1   1
 -0.2183624400709596E-17   5   3   2   1
  0.1557894053496826E-15   5   3   2   2
  0.6762074102574634E-17   5   3   3   1
 -0.2584790121683672E-16   5   3   3   2
  0.1500174859689168E-15   5   3   3   3
  0.1141627048775227E-17   5   3   4   1
 -0.3560766810921610E-17   5   3   4   2
 -0.2058330778394200E-16   5   3   4   3
  0.1408881644114845E-15   5   3   4   4
 -0.2850527400507758E-16   5   3   5   1
 -0.7583677528386153E-16   5   3   5   2
  0.2778340830710184E-01   5   3   5   3
  0.3032857620503027E-15   5   4   1   1
 -0.5417292487156954E-17   5   4   2   1
  0.1414748079165846E-15   5   4   2   2
 -0.1752773450309246E-17   5   4   3   1
 -0.4292417375478836E-17   5   4   3   2
  0.8079194063957346E-16   5   4   3   3
  0.6347124164521055E-17   5   4   4   1
 -0.1220389331467350E-16   5   4   4   2
  0.8162772970906175E-17   5   4   4   3
  0.1151805473453843E-15   5   4   4   4
 -0.9894129715259294E-02   5   4   5   1
 -0.3480271622974990E-01   5   4   5   2
  0.4513411206289966E-16   5   4   5   3
  0.4438055347100365E-01   5   4   5   4
  0.1012613434342006E+01   5   5   1   1
 -0.1030407845842521E-01   5   5   2   1
  0.6951688599207573E+00   5   5   2   2
 -0.3577867169202165E-17   5   5   3   1
 -0.2025289658202922E-15   5   5   3   2
  0.6041633062097497E+00   5   5   3   3
  0.3287660977942919E-02   5   5   4   1
 -0.4233123228639494E-01   5   5   4   2
  0.2307182223049153E-15   5   5   4   3
  0.6495375546994461E+00   5   5   4   4
  0.5328452273259565E-16   5   5   5   1
  0.2045480244265469E-15   5   5   5   2
  0.1600164042125088E-15   5   5   5   3
  0.9373516192758100E-16   5   5   5   4
  0.7408427685730649E+00   5   5   5   5
  0.1602644556405994E+00   6   1   1   1
 -0.2514144433442068E-01   6   1   2   1
  0.7862339498904110E-03   6   1   2   2
 -0.6967904782350688E-18   6   1   3   1
 -0.2059984127722458E-16   6   1   3   2
  0.7927054893433147E-03   6   1   3   3
 -0.1451209110134252E-02   6   1   4   1
 -0.1088424546016240E-01   6   1   4   2
  0.2538388336331687E-16   6   1   4   3
  0.9632927287416394E-02   6   1   4   4
 -0.1534624248971354E-17   6   1   5   1
  0.1057178281323364E-16   6   1   5   2
  0.6926567772128359E-18   6   1   5   3
 -0.6130742743394464E-17   6   1   5   4
  0.3483578633383532E-02   6   1   5   5
  0.1323385454223568E-01   6   1   6   1
 -0.2318878703534863E+00   6   2   1   1
  0.4323630573574443E-02   6   2   2   1
 -0.1181377216313265E+00   6   2   2   2
 -0.1884817714230269E-16   6   2   3   1
  0.6223320470066795E-16   6   2   3   2
 -0.7874454547849753E-01   6   2   3   3
 -0.1139614676930596E-01   6   2   4   1
 -0.1817198465362924E-01   6   2   4   2
  0.2125036258071589E-16   6   2   4   3
 -0.7605035196994260E-01   6   2   4   4
  0.6511186158820707E-17   6   2   5   1
  0.1647769681182763E-16   6   2   5   2
 -0.1957038249949889E-16   6   2   5   3
 -0.7315771716037071E-16   6   2   5   4
 -0.1050441455461172E+00   6   2   5   5
  0.1741195692410928E-02   6   2   6   1
  0.4799594890809767E-01   6   2   6   2
 -0.1384051835813527E-15   6   3   1   1
  0.2424208295041808E-17   6   3   2   1
  0.1494843745314389E-16   6   3   2   2
 -0.4078924597822331E-02   6   3   3   1
  0.9627465803059888E-02   6   3   3   2
  0.1231653667943533E-15   6   3   3   3
  0.1511614997670024E-16   6   3   4   1
  0.1017794789420767E-15   6   3   4   2
  0.8205654036703638E-02   6   3   4   3
 -0.9909607856517511E-16   6   3   4   4
 -0.8219463454683026E-18   6   3   5   1
  0.5050679014311535E-17   6   3   5   2
 -0.1532456298199782E-16   6   3   5   3
 -0.6061431976815556E-18   6   3   5   4
 -0.6550944262903875E-16   6   3   5   5
 -0.1592760754016986E-16   6   3   6   1
  0.5052382123782451E-16   6   3   6   2
  0.2685357664156594E-01   6   3   6   3
 -0.1357292267527036E+00   6   4   1   1
  0.9767467448949674E-03   6   4   2   1
 -0.6764551753110490E-01   6   4   2   2
  0.1364993594500305E-16   6   4   3   1
  0.1085828475744233E-15   6   4   3   2
 -0.4243286017431564E-01   6   4   3   3
 -0.2996981680015778E-02   6   4   4   1
  0.1094606380058723E-01   6   4   4   2
 -0.9053088140253962E-16   6   4   4   3
 -0.7297980708898465E-01   6   4   4   4
 -0.1642114352962914E-16   6   4   5   1
 -0.7659718520434679E-16   6   4   5   2
 -0.1244658179419882E-16   6   4   5   3
 -0.2553237097233148E-17   6   4   5   4
 -0.6538920379486088E-01   6   4   5   5
  0.6106776269908373E-03   6   4   6   1
  0.2683221173635038E-01   6   4   6   2
  0.1517883041479706E-16   6   4   6   3
  0.2767762669475967E-01   6   4   6   4
  0.1754952005693004E-15   6   5   1   1
 -0.4436011691282943E-17   6   5   2   1
  0.8585007204316734E-16   6   5   2   2
 -0.9873961354929910E-18   6   5   3   1
  0.2013459027062186E-17   6   5   3   2
  0.5269805876585099E-16   6   5   3   3
 -0.1322717602838178E-16   6   5   4   1
 -0.7246094524034279E-16   6   5   4   2
  0.2014043840551852E-18   6   5   4   3
  0.1051233753259798E-15   6   5   4   4
 -0.8506326349583600E-02   6   5   5   1
 -0.2621229156021949E-01   6   5   5   2
 -0.6524529503131562E-17   6   5   5   3
 -0.2563342309946197E-03   6   5   5   4
  0.9121989460215692E-16   6   5   5   5
  0.1976288241777625E-18   6   5   6   1
 -0.3684461498865562E-16   6   5   6   2
  0.6754471370324316E-17   6   5   6   3
 -0.2001951620947965E-16   6   5   6   4
  0.1358102696749528E-01   6   5   6   5
  0.4679957756702394E+00   6   6   1   1
 -0.2179274718966777E-02   6   6   2   1
  0.4081230085016874E+00   6   6   2   2
  0.9920449878242366E-17   6   6   3   1
 -0.8716985466783456E-16   6   6   3   2
  0.3923416310847314E+00   6   6   3   3
  0.8463116808875152E-02   6   6   4   1
  0.3641129953011926E-01   6   6   4   2
  0.2081668171172169E-16   6   6   4   3
  0.3658347173505235E+00   6   6   4   4
 -0.4859496351725899E-17   6   6   5   1
 -0.5355785864405128E-16   6   6   5   2
  0.8760696557975424E-16   6   6   5   3
  0.3422002066773034E-16   6   6   5   4
  0.3748584252163480E+00   6   6   5   5
 -0.1830762285841590E-02   6   6   6   1
 -0.2706144240027980E-01   6   6   6   2
  0.3469446951953614E-16   6   6   6   3
 -0.3630895630481412E-02   6   6   6   4
 -0.4080849159214548E-17   6   6   6   5
  0.3417441481643779E+00   6   6   6   6
  0.3960723943778740E-15   7   1   1   1
 -0.5061318321375984E-16   7   1   2   1
  0.2740320990957112E-16   7   1   2   2
 -0.1323011494123660E-01   7   1   3   1
 -0.1517773758448085E-01   7   1   3   2
  0.3252606517456513E-16   7   1   3   3
  0.8052620468560466E-16   7   1   4   1
  0.6215527766952056E-16   7   1   4   2
  0.2983830548956656E-02   7   1   4   3
 -0.2591243192240356E-16   7   1   4   4
 -0.1331788701915151E-16   7   1   5   1
 -0.1229805600323546E-16   7   1   5   2
 -0.5904083885093454E-17   7   1   5   3
  0.4204402192081576E-17   7   1   5   4
 -0.4960598655364621E-17   7   1   5   5
  0.2121182258161582E-16   7   1   6   1
 -0.1008308020411519E-16   7   1   6   2
  0.2791124691651367E-02   7   1   6   3
 -0.1132991270247352E-16   7   1   6   4
  0.3144176057381676E-17   7   1   6   5
  0.2341876692568690E-16   7   1   6   6
  0.9354582321677378E-02   7   1   7   1
 -0.6207811296802569E-15   7   2   1   1
  0.2212513585699277E-16   7   2   2   1
 -0.4128540228871130E-15   7   2   2   2
 -0.1114995903822031E-01   7   2   3   1
 -0.3878507818271061E-01   7   2   3   2
 -0.3621235256101585E-15   7   2   3   3
  0.2808591846505809E-16   7   2   4   1
  0.1294367987358241E-15   7   2   4   2
  0.1541974904400188E-01   7   2   4   3
 -0.4059252933785729E-15   7   2   4   4
 -0.8328017924465825E-17   7   2   5   1
 -0.1990615747318392E-16   7   2   5   2
 -0.2625450796650330E-16   7   2   5   3
  0.9142545016873818E-17   7   2   5   4
 -0.3252594679632219E-15   7   2   5   5
 -0.2022206458274917E-16   7   2   6   1
  0.7521652571618187E-16   7   2   6   2
  0.1430832922903338E-01   7   2   6   3
  0.9107298248878237E-17   7   2   6   4
  0.7686443339809707E-17   7   2   6   5
 -0.2081668171172169E-15   7   2   6   6
  0.7736393670098995E-02   7   2   7   1
  0.2665004139706516E-01   7   2   7   2
 -0.2846572066040691E+00   7   3   1   1
  0.5167085772729695E-02   7   3   2   1
 -0.1307489669156970E+00   7   3   2   2
 -0.3035766082959412E-17   7   3   3   1
 -0.3317658647805644E-16   7   3   3   2
 -0.1091031329601287E+00   7   3   3   3
  0.4530153424789872E-04   7   3   4   1
  0.3661059296020358E-01   7   3   4   2
 -0.1186117176699142E-15   7   3   4   3
 -0.1287925541579543E+00   7   3   4   4
 -0.9186542741336027E-17   7   3   5   1
 -0.6720362951063682E-16   7   3   5   2
 -0.3227000373464184E-16   7   3   5   3
 -0.4254834188630381E-16   7   3   5   4
 -0.1347145816022506E+00   7   3   5   5
 -0.2456319960863769E-02   7   3   6   1
  0.4127431542839119E-01   7   3   6   2
  0.1092875789865388E-15   7   3   6   3
  0.3354167627891010E-01   7   3   6   4
 -0.5177552475433118E-16   7   3   6   5
 -0.1228824459109402E-01   7   3   6   6
  0.7752045533271357E-17   7   3   7   1
  0.1361757928641794E-15   7   3   7   2
  0.7351791446838415E-01   7   3   7   3
  0.1134922717125329E-14   7   4   1   1
 -0.3025389929355547E-16   7   4   2   1
  0.4063318691932549E-15   7   4   2   2
  0.5704209227769580E-02   7   4   3   1
  0.3894567659645731E-01   7   4   3   2
  0.2532696274926138E-15   7   4   3   3
 -0.3444374776714887E-16   7   4   4   1
 -0.2841422843541386E-15   7   4   4   2
 -0.7318579409760937E-02   7   4   4   3
  0.5194412608378052E-15   7   4   4   4
  0.4219268945564130E-17   7   4   5   1
  0.1733719943863408E-16   7   4   5   2
 -0.1389452189536723E-16   7   4   5   3
 -0.9415231666929402E-17   7   4   5   4
  0.4458608761463239E-15   7   4   5   5
  0.3422648381617814E-16   7   4   6   1
 -0.1281526967877866E-15   7   4   6   2
  0.1456151306766199E-01   7   4   6   3
 -0.1342242289537054E-15   7   4   6   4
  0.3744665911628202E-17   7   4   6   5
 -0.1307547820017518E-15   7   4   6   6
 -0.4052040489871658E-02   7   4   7   1
 -0.7288901632025281E-02   7   4   7   2
 -0.2662800535624399E-15   7   4   7   3
  0.2374633497192230E-01   7   4   7   4
 -0.2207366565727777E-15   7   5   1   1
  0.4997306774567504E-17   7   5   2   1
 -0.9277435890976077E-16   7   5   2   2
 -0.1002464173291569E-16   7   5   3   1
 -0.6625528288996141E-16   7   5   3   2
 -0.7584793885210396E-16   7   5   3   3
 -0.7225390420714959E-18   7   5   4   1
  0.1806513082859901E-16   7   5   4   2
 -0.1336157741213270E-16   7   5   4   3
 -0.8885685384496956E-16   7   5   4   4
 -0.1509697690013666E-16   7   5   5   1
 -0.7753535852243577E-17   7   5   5   2
 -0.1243003097707698E-01   7   5   5   3
  0.5394676106978388E-16   7   5   5   4
 -0.1040686736436452E-15   7   5   5   5
 -0.2116554070841268E-17   7   5   6   1
  0.2714801300981968E-16   7   5   6   2
 -0.2484943203000496E-16   7   5   6   3
  0.1863003552937294E-16   7   5   6   4
  0.2279443240269952E-16   7   5   6   5
 -0.1818854721937263E-16   7   5   6   6
  0.6910359803468161E-17   7   5   7   1
  0.1114419470892337E-16   7   5   7   2
  0.4253417106388072E-16   7   5   7   3
 -0.2399264148611947E-16   7   5   7   4
  0.8440586115652552E-02   7   5   7   5
  0.2202711296917176E-15   7   6   1   1
 -0.8592302216947623E-17   7   6   2   1
  0.1061433926863309E-15   7   6   2   2
  0.5658288530120128E-02   7   6   3   1
  0.6015614933304615E-01   7   6   3   2
  0.9367506770274758E-16   7   6   3   3
 -0.6783039841612437E-17   7   6   4   1
 -0.1629555865245713E-15   7   6   4   2
  0.2206659254726932E-01   7   6   4   3
  0.2818925648462312E-16   7   6   4   4
  0.4658884975969446E-17   7   6   5   1
  0.2745843148016102E-16   7   6   5   2
 -0.3887477859824576E-16   7   6   5   3
  0.1019374403032873E-18   7   6   5   4
 -0.2565980458570163E-17   7   6   5   5
  0.2490954491285446E-16   7   6   6   1
 -0.4380176776841438E-16   7   6   6   2
  0.3370261870418126E-01   7   6   6   3
 -0.2471980953266950E-16   7   6   6   4
  0.9161254505694046E-17   7   6   6   5
  0.2879640970121500E-15   7   6   6   6
 -0.3817275993481775E-02   7   6   7   1
  0.4858069789532155E-02   7   6   7   2
 -0.1465841337200402E-15   7   6   7   3
  0.2852487716264572E-01   7   6   7   4
 -0.4871500569441490E-16   7   6   7   5
  0.8731931897752249E-01   7   6   7   6
  0.4922413948028366E+00   7   7   1   1
 -0.3227871836679837E-02   7   7   2   1
  0.4070030704391135E+00   7   7   2   2
  0.3203817419694666E-16   7   7   3   1
  0.4640385298237959E-16   7   7   3   2
  0.4071711309552609E+00   7   7   3   3
  0.1879596925518093E-02   7   7   4   1
  0.9406662610292577E-02   7   7   4   2
 -0.1647987302177967E-16   7   7   4   3
  0.3808538288797930E+00   7   7   4   4
  0.4851730008053731E-17   7   7   5   1
 -0.1248719851736472E-16   7   7   5   2
  0.9849083774593101E-16   7   7   5   3
  0.2410200488198586E-16   7   7   5   4
  0.3807045579837575E+00   7   7   5   5
  0.8924087588029345E-03   7   7   6   1
 -0.2116843669912760E-01   7   7   6   2
  0.6938893903907228E-17   7   7   6   3
 -0.1468990436750917E-02   7   7   6   4
 -0.6232251456598351E-17   7   7   6   5
  0.3367358154317609E+00   7   7   6   6
 -0.5377642775528102E-16   7   7   7   1
 -0.3469446951953614E-15   7   7   7   2
 -0.2321248156514347E-01   7   7   7   3
  0.9020562075079397E-16   7   7   7   4
 -0.2629087304970887E-16   7   7   7   5
  0.3885780586188048E-15   7   7   7   6
  0.3495507994588737E+00   7   7   7   7
  0.3454937171688030E-14   8   1   1   1
 -0.5594821493808513E-15   8   1   2   1
 -0.1030839096808484E-16   8   1   2   2
 -0.4185957247919502E-02   8   1   3   1
 -0.4782795132944701E-02   8   1   3   2
  0.2992397996059992E-16   8   1   3   3
 -0.9748004558093231E-16   8   1   4   1
 -0.2784502229485897E-15   8   1   4   2
  0.1400245321679919E-02   8   1   4   3
  0.2447298413183960E-15   8   1   4   4
 -0.7136373004421691E-16   8   1   5   1
 -0.6525082545518968E-16   8   1   5   2
 -0.1776639210612004E-17   8   1   5   3
  0.2308648104461553E-16   8   1   5   4
  0.7241473136154237E-16   8   1   5   5
  0.3173761514352531E-15   8   1   6   1
  0.6825730302154054E-16   8   1   6   2
  0.7670543641733621E-03   8   1   6   3
  0.1956984921336336E-16   8   1   6   4
  0.1953121620611900E-16   8   1   6   5
 -0.5995638013844840E-16   8   1   6   6
  0.2964300564972238E-02   8   1   7   1
  0.2521425773048350E-02   8   1   7   2
 -0.5862823247715365E-16   8   1   7   3
 -0.1559689893236555E-02   8   1   7   4
  0.2557879085018892E-17   8   1   7   5
 -0.1173938811103994E-02   8   1   7   6
  0.2341876692568690E-16   8   1   7   7
  0.9511810917030695E-03   8   1   8   1
 -0.3681223770552470E-14   8   2   1   1
  0.8710463313089598E-16   8   2   2   1
 -0.9622429806080413E-15   8   2   2   2
 -0.2340006600006409E-02   8   2   3   1
  0.1889714853677195E-01   8   2   3   2
  0.3747002708109903E-15   8   2   3   3
 -0.2027864638362575E-15   8   2   4   1
  0.6873841773558098E-16   8   2   4   2
  0.3346747324619151E-01   8   2   4   3
 -0.7240302107858199E-15   8   2   4   4
 -0.3396097699375170E-16   8   2   5   1
 -0.5749247046096664E-16   8   2   5   2
 -0.5700891149753769E-16   8   2   5   3
  0.3090985672362445E-16   8   2   5   4
 -0.1527789418040462E-14   8   2   5   5
  0.4513796224270804E-16   8   2   6   1
  0.9001046435974658E-15   8   2   6   2
  0.9043211458844486E-02   8   2   6   3
  0.5134781488891349E-15   8   2   6   4
  0.3350725615862394E-16   8   2   6   5
 -0.6982261990806649E-16   8   2   6   6
  0.1729162750707359E-02   8   2   7   1
  0.1243695832416762E-01   8   2   7   2
  0.6526897078362737E-15   8   2   7   3
 -0.3130566252992906E-03   8   2   7   4
 -0.1801741913516750E-17   8   2   7   5
  0.1612463299952058E-01   8   2   7   6
  0.1144917494144693E-15   8   2   7   7
  0.7649378474314274E-03   8   2   8   1
  0.3687898393254104E-01   8   2   8   2
 -0.5045584042377028E-01   8   3   1   1
  0.2872804826576000E-02   8   3   2   1
  0.2782248429744010E-01   8   3   2   2
  0.6099992472946569E-16   8   3   3   1
  0.2172199052574708E-14   8   3   3   2
  0.3914239917079351E-01   8   3   3   3
  0.5574848434319600E-02   8   3   4   1
  0.6519980784748630E-01   8   3   4   2
  0.8289809810824167E-15   8   3   4   3
 -0.1522095905366509E-01   8   3   4   4
 -0.8758446274697044E-17   8   3   5   1
 -0.1082724800412741E-15   8   3   5   2
 -0.3942472659518734E-17   8   3   5   3
 -0.1317271351256825E-16   8   3   5   4
 -0.1787870838301677E-01   8   3   5   5
 -0.3205990971453649E-02   8   3   6   1
  0.2530431745979219E-02   8   3   6   2
  0.9593020822151743E-15   8   3   6   3
  0.1664567789226508E-01   8   3   6   4
 -0.3279434129206906E-16   8   3   6   5
  0.3166828849979914E-01   8   3   6   6
 -0.2516704292881977E-16   8   3   7   1
  0.1214306433183765E-15   8   3   7   2
  0.3346790202711693E-01   8   3   7   3
  0.4779163176316104E-15   8   3   7   4
  0.2358413518293962E-16   8   3   7   5
  0.1325328735646281E-14   8   3   7   6
  0.2081983930797377E-01   8   3   7   7
 -0.7951267682465568E-16   8   3   8   1
  0.2375053279046746E-14   8   3   8   2
  0.8061235520517396E-01   8   3   8   3
 -0.2242477164450161E-14   8   4   1   1
  0.4789632503544167E-16   8   4   2   1
 -0.3510917685051185E-15   8   4   2   2
  0.6921950057824643E-02   8   4   3   1
  0.7036825803136618E-01   8   4   3   2
  0.4215378046623641E-15   8   4   3   3
 -0.5257702910196893E-16   8   4   4   1
  0.2515620090709492E-15   8   4   4   2
  0.6547791776949594E-02   8   4   4   3
 -0.8275715182581855E-15   8   4   4   4
  0.1689123842694301E-16   8   4   5   1
  0.5302543118911429E-16   8   4   5   2
 -0.3080998778964713E-16   8   4   5   3
 -0.2790205322372923E-16   8   4   5   4
 -0.5923554527224292E-15   8   4   5   5
 -0.4761172196516422E-17   8   4   6   1
  0.4466912950640278E-15   8   4   6   2
  0.1574645949495505E-01   8   4   6   3
  0.4792173602385930E-15   8   4   6   4
  0.1871050406557465E-18   8   4   6   5
  0.7632783294297951E-16   8   4   6   6
 -0.4790933088186026E-02   8   4   7   1
 -0.1139942514917646E-01   8   4   7   2
  0.4440892098500626E-15   8   4   7   3
  0.2645171826842771E-01   8   4   7   4
 -0.3623605499525468E-16   8   4   7   5
  0.3110905784286265E-01   8   4   7   6
  0.6245004513516506E-16   8   4   7   7
 -0.1610464276552525E-02   8   4   8   1
  0.1604190908479361E-01   8   4   8   2
  0.2390448949896040E-14   8   4   8   3
  0.4872751099081772E-01   8   4   8   4
 -0.9605123888960470E-15   8   5   1   1
  0.2622740387972685E-16   8   5   2   1
 -0.3365152110637055E-15   8   5   2   2
 -0.1153247853784190E-16   8   5   3   1
 -0.1247785198860488E-15   8   5   3   2
 -0.2551152038534613E-15   8   5   3   3
 -0.6259931212673520E-17   8   5   4   1
  0.5963243636932666E-16   8   5   4   2
 -0.3147165178887898E-16   8   5   4   3
 -0.3157218622276353E-15   8   5   4   4
 -0.2802477639369211E-15   8   5   5   1
 -0.1310392885460312E-14   8   5   5   2
 -0.1049187758670308E-01   8   5   5   3
  0.1678835782753409E-15   8   5   5   4
 -0.3744392227297722E-15   8   5   5   5
 -0.1010752869455841E-16   8   5   6   1
  0.1107454222144480E-15   8   5   6   2
 -0.3060864327075464E-16   8   5   6   3
  0.6353313384825316E-16   8   5   6   4
  0.3163887990030394E-15   8   5   6   5
 -0.8278227861867694E-16   8   5   6   6
  0.8392533478725466E-17   8   5   7   1
  0.1824907469770560E-16   8   5   7   2
  0.1381427792774344E-15   8   5   7   3
 -0.3783708152214235E-16   8   5   7   4
  0.5060117159689645E-02   8   5   7   5
 -0.5826221668265013E-16   8   5   7   6
 -0.1049883918576292E-15   8   5   7   7
  0.1959149842304413E-17   8   5   8   1
 -0.3063019818731552E-16   8   5   8   2
  0.3496247864165449E-16   8   5   8   3
 -0.7531046139889858E-16   8   5   8   4
  0.8238284216125952E-02   8   5   8   5
  0.4906638494900270E-14   8   6   1   1
 -0.1072786815334477E-15   8   6   2   1
  0.2980353187550036E-14   8   6   2   2
 -0.9583696980086605E-04   8   6   3   1
 -0.2695130144293019E-02   8   6   3   2
  0.2751163012681968E-14   8   6   3   3
  0.1788226312090125E-15   8   6   4   1
  0.3612188944224909E-15   8   6   4   2
  0.8240243846630801E-02   8   6   4   3
  0.2386925292835462E-14   8   6   4   4
  0.1742865749189378E-16   8   6   5   1
  0.7404587676630106E-16   8   6   5   2
 -0.1532314160111289E-16   8   6   5   3
 -0.8346178156411850E-17   8   6   5   4
  0.2544918880890225E-14   8   6   5   5
 -0.1792575826274276E-16   8   6   6   1
 -0.6457237088780543E-15   8   6   6   2
 -0.4308844077155431E-02   8   6   6   3
 -0.5209591438792849E-15   8   6   6   4
 -0.1232597224907732E-16   8   6   6   5
  0.9506284648352903E-15   8   6   6   6
  0.5240797445935518E-04   8   6   7   1
  0.2882189242445200E-02   8   6   7   2
 -0.6940520207165957E-15   8   6   7   3
 -0.3614603515588407E-02   8   6   7   4
  0.5236576391855219E-17   8   6   7   5
 -0.1213796712380139E-01   8   6   7   6
  0.3330669073875470E-15   8   6   7   7
  0.4386137814471782E-04   8   6   8   1
  0.1282467063107464E-01   8   6   8   2
  0.1015030073880929E-14   8   6   8   3
 -0.2545335958027133E-03   8   6   8   4
  0.1344252914823005E-17   8   6   8   5
  0.1658666042468922E-01   8   6   8   6
  0.1165226814888050E+00   8   7   1   1
 -0.1391108668215365E-02   8   7   2   1
  0.7957506681435220E-01   8   7   2   2
  0.5803192128228662E-16   8   7   3   1
  0.2410181429435276E-15   8   7   3   2
  0.7792372547416317E-01   8   7   3   3
 -0.1067299785192642E-02   8   7   4   1
 -0.8878405679825153E-02   8   7   4   2
  0.2181414771040835E-15   8   7   4   3
  0.8167032561693170E-01   8   7   4   4
  0.4840075681402505E-17   8   7   5   1
  0.1533519911734673E-16   8   7   5   2
  0.3731982170076384E-16   8   7   5   3
 -0.3484687335602384E-17   8   7   5   4
  0.7286438725240374E-01   8   7   5   5
  0.9936043324464440E-03   8   7   6   1
 -0.1066431961489124E-01   8   7   6   2
 -0.4336808689942018E-17   8   7   6   3
 -0.8797678183144446E-02   8   7   6   4
  0.1180683438690995E-16   8   7   6   5
  0.2338295952803526E-01   8   7   6   6
 -0.4325966668217163E-16   8   7   7   1
 -0.2406928822917820E-15   8   7   7   2
 -0.2228479310373392E-01   8   7   7   3
  0.2584737979205443E-15   8   7   7   4
 -0.2300892676530962E-16   8   7   7   5
  0.2844946500601964E-15   8   7   7   6
  0.2718122687088151E-01   8   7   7   7
  0.2449619283459437E-17   8   7   8   1
  0.3947580110019722E-15   8   7   8   2
  0.8428480682576478E-02   8   7   8   3
  0.3701466216865512E-15   8   7   8   4
 -0.5345923541639600E-16   8   7   8   5
  0.9263423361716150E-15   8   7   8   6
  0.2376262781139828E-01   8   7   8   7
  0.5040429756482203E+00   8   8   1   1
  0.1718201670456929E-03   8   8   2   1
  0.5022457766337670E+00   8   8   2   2
  0.3550220013803784E-15   8   8   3   1
  0.6325669155149427E-14   8   8   3   2
  0.5143493968069914E+00   8   8   3   3
  0.2375318721779530E-02   8   8   4   1
  0.3090333960090235E-01   8   8   4   2
  0.2910865992689082E-14   8   8   4   3
  0.4613922860976071E+00   8   8   4   4
  0.3573617016266139E-17   8   8   5   1
 -0.4906503523489963E-16   8   8   5   2
  0.1035005250108800E-15   8   8   5   3
 -0.6625505062166002E-17   8   8   5   4
  0.4462522903191877E+00   8   8   5   5
 -0.9163189092822113E-03   8   8   6   1
 -0.2435815112383810E-01   8   8   6   2
  0.2386979502944087E-14   8   8   6   3
 -0.1234846592147773E-01   8   8   6   4
  0.1055687291001286E-16   8   8   6   5
  0.3551338012734574E+00   8   8   6   6
 -0.2727852665973529E-15   8   8   7   1
 -0.1422473250300982E-15   8   8   7   2
 -0.3038053113188921E-01   8   8   7   3
  0.1845745778439323E-14   8   8   7   4
 -0.3299463008571458E-16   8   8   7   5
  0.4551914400963142E-14   8   8   7   6
  0.3571591705308086E+00   8   8   7   7
 -0.6063400649625184E-16   8   8   8   1
  0.5051514762044462E-14   8   8   8   2
  0.7748595817428423E-01   8   8   8   3
  0.5625708232592785E-14   8   8   8   4
 -0.6124175275618506E-16   8   8   8   5
  0.2381775332516156E-14   8   8   8   6
  0.6124478274657541E-01   8   8   8   7
  0.5075736339189572E+00   8   8   8   8
  0.4447623318210917E-15   9   1   1   1
 -0.6100341455039073E-16   9   1   2   1
  0.3802671358853769E-16   9   1   2   2
  0.8000347908466919E-16   9   1   3   1
  0.8411829765825483E-16   9   1   3   2
  0.3824667316237920E-16   9   1   3   3
 -0.8372919989791192E-16   9   1   4   1
 -0.9382181300978915E-16   9   1   4   2
 -0.1841170445720854E-16   9   1   4   3
  0.1119676791106038E-15   9   1   4   4
 -0.3702837070860213E-01   9   1   5   1
 -0.3402541121525222E-01   9   1   5   2
  0.3457904918899781E-16   9   1   5   3
  0.1192807978198395E-01   9   1   5   4
  0.1033501405850080E-16   9   1   5   5
  0.3338194382001141E-16   9   1   6   1
 -0.6813553556964420E-17   9   1   6   2
 -0.1646142274884377E-16   9   1   6   3
  0.1179418272784861E-16   9   1   6   4
  0.1031398903292596E-01   9   1   6   5
  0.5913630963550042E-17   9   1   6   6
 -0.4488160893619691E-16   9   1   7   1
 -0.3811605952820399E-16   9   1   7   2
 -0.2514752343683027E-16   9   1   7   3
  0.2029671398969081E-16   9   1   7   4
  0.2177244869889092E-16   9   1   7   5
  0.1829183478002550E-16   9   1   7   6
  0.1704891992011205E-16   9   1   7   7
  0.7472639844382500E-16   9   1   8   1
  0.3059352283174841E-16   9   1   8   2
 -0.1187159254207589E-16   9   1   8   3
  0.8724397484375443E-17   9   1   8   4
  0.3366629723973858E-15   9   1   8   5
 -0.2155106458801066E-16   9   1   8   6
  0.9428075276920593E-17   9   1   8   7
  0.1000144904679643E-16   9   1   8   8
  0.4903701973423177E-01   9   1   9   1
 -0.1138494444027747E-15   9   2   1   1
  0.6911941893310928E-19   9   2   2   1
 -0.1290768047110750E-16   9   2   2   2
  0.4172584903782400E-16   9   2   3   1
  0.2921494883154829E-16   9   2   3   2
  0.1589873818509077E-16   9   2   3   3
 -0.4899670289700093E-16   9   2   4   1
 -0.7174496542454856E-16   9   2   4   2
 -0.1071783111986549E-15   9   2   4   3
  0.5410169198426448E-16   9   2   4   4
 -0.1881650335884538E-01   9   2   5   1
 -0.3987388190860925E-01   9   2   5   2
  0.4723100097213296E-16   9   2   5   3
  0.1320257079075933E-01   9   2   5   4
 -0.5864126949737686E-16   9   2   5   5
  0.2518639935179728E-17   9   2   6   1
  0.2097384365798519E-16   9   2   6   2
 -0.6902409074138445E-16   9   2   6   3
  0.5238782264855251E-16   9   2   6   4
  0.1905622324282190E-01   9   2   6   5
  0.9010467004519245E-17   9   2   6   6
 -0.2368227273524264E-16   9   2   7   1
 -0.8105709585134964E-16   9   2   7   2
  0.1633358392723698E-16   9   2   7   3
  0.6796331128494351E-17   9   2   7   4
  0.4212834814085324E-16   9   2   7   5