 &FCI NORB= 13,NELEC= 10,MS2= 0,
  ORBSYM=1,1,1,1,1,1,1,1,1,1,1,1,1,
  ISYM=0,
 /
  0.4738035721741741E+01   1   1   1   1
 -0.4240415034428373E+00   2   1   1   1
  0.6240867376777765E-01   2   1   2   1
  0.1034060122341367E+01   2   2   1   1
 -0.1152726306638049E-01   2   2   2   1
  0.7668396549832778E+00   2   2   2   2
  0.1392499039431051E-14   3   1   1   1
 -0.1443447903657366E-15   3   1   2   1
  0.2231535774304659E-15   3   1   2   2
  0.2562701718776296E-01   3   1   3   1
 -0.6424457666726764E-15   3   2   1   1
  0.8611868678029197E-16   3   2   2   1
  0.3275050834365463E-15   3   2   2   2
  0.2710429561378514E-01   3   2   3   1
  0.1435028074588461E+00   3   2   3   2
  0.9654054142649434E+00   3   3   1   1
 -0.9032843192915724E-02   3   3   2   1
  0.6996043980423488E+00   3   3   2   2
 -0.4065758146820642E-17   3   3   3   1
 -0.2732189474663471E-15   3   3   3   2
  0.7031023997118609E+00   3   3   3   3
  0.1827883782207192E+00   4   1   1   1
 -0.2033507869237285E-01   4   1   2   1
  0.2073693020492609E-01   4   1   2   2
  0.7084710625777056E-16   4   1   3   1
 -0.4128099771738558E-16   4   1   3   2
  0.6574539083032330E-02   4   1   3   3
  0.3443916434134116E-01   4   1   4   1
 -0.9666527841445686E-01   4   2   1   1
  0.1032285858673601E-01   4   2   2   1
  0.3410650336227387E-01   4   2   2   2
 -0.3277339879516339E-16   4   2   3   1
 -0.1563419532724097E-15   4   2   3   2
 -0.1406492372080780E-01   4   2   3   3
  0.1997576262094427E-01   4   2   4   1
  0.1110806059981216E+00   4   2   4   2
  0.6264003104032741E-15   4   3   1   1
 -0.5685031032086688E-16   4   3   2   1
 -0.6712985513358001E-16   4   3   2   2
 -0.8883805264324788E-02   4   3   3   1
 -0.1286645087660218E-01   4   3   3   2
  0.4113068090962853E-15   4   3   3   3
 -0.7822645729425003E-16   4   3   4   1
 -0.5050823583159503E-15   4   3   4   2
  0.4618068513267285E-01   4   3   4   3
  0.1010458560128477E+01   4   4   1   1
 -0.1658692944400339E-01   4   4   2   1
  0.6644034764568533E+00   4   4   2   2
  0.7995991022080595E-16   4   4   3   1
 -0.4727121472036799E-15   4   4   3   2
  0.6455570720904137E+00   4   4   3   3
 -0.1314949562762819E-01   4   4   4   1
 -0.8776032132113024E-01   4   4   4   2
  0.4527628272299467E-15   4   4   4   3
  0.7688472053285503E+00   4   4   4   4
  0.1388955007259920E-16   5   1   1   1
  0.2384582451549235E-16   5   1   2   1
  0.6593422001563120E-16   5   1   2   2
  0.1108795139147653E-16   5   1   3   1
  0.1357276464679347E-16   5   1   3   2
  0.4480518780668336E-16   5   1   3   3
  0.2630471556675136E-17   5   1   4   1
  0.3076253689100504E-18   5   1   4   2
  0.1038499647887892E-17   5   1   4   3
  0.3899148922443004E-16   5   1   4   4
  0.3167971679923806E-01   5   1   5   1
  0.4229908839076752E-15   5   2   1   1
  0.1139063943066769E-16   5   2   2   1
  0.2911936795832103E-15   5   2   2   2
  0.7759470617098304E-17   5   2   3   1
  0.6763836595798704E-16   5   2   3   2
  0.2086850491955404E-15   5   2   3   3
  0.5783865142224818E-17   5   2   4   1
 -0.2391486231264285E-16   5   2   4   2
  0.4170569082244541E-16   5   2   4   3
  0.2060049756142176E-15   5   2   4   4
  0.3056673835938510E-01   5   2   5   1
  0.1260052986277166E+00   5   2   5   2
  0.2237755438766195E-15   5   3   1   1
 -0.2488167759528291E-17   5   3   2   1
  0.1724908308418053E-15   5   3   2   2
  0.5665932173251072E-17   5   3   3   1
  0.3234251664887795E-17   5   3   3   2
  0.1528501419479819E-15   5   3   3   3
  0.6887082477569934E-17   5   3   4   1
  0.4419611606064697E-16   5   3   4   2
 -0.8537836809202456E-17   5   3   4   3
  0.1177958341534149E-15   5   3   4   4
 -0.8786367571489414E-16   5   3   5   1
 -0.2797979060363146E-15   5   3   5   2
  0.3348113032680139E-01   5   3   5   3
  0.1550007605692307E-15   5   4   1   1
 -0.8932123818863161E-17   5   4   2   1
  0.6863762026803997E-16   5   4   2   2
  0.1876795409677396E-17   5   4   3   1
  0.3909155949335069E-16   5   4   3   2
  0.8182935360151039E-16   5   4   3   3
  0.3398149115523488E-17   5   4   4   1
 -0.1019268251086517E-16   5   4   4   2
  0.2534681192945806E-17   5   4   4   3
  0.1146959613373904E-15   5   4   4   4
 -0.1343495171026365E-01   5   4   5   1
 -0.4318023054740602E-01   5   4   5   2
  0.1423419332851035E-15   5   4   5   3
  0.5236007984111492E-01   5   4   5   4
  0.1060808848475882E+01   5   5   1   1
 -0.1224224592661427E-01   5   5   2   1
  0.7128496787135823E+00   5   5   2   2
  0.1007223818239034E-15   5   5   3   1
 -0.3044439700339296E-15   5   5   3   2
  0.6613379108569097E+00   5   5   3   3
  0.4559909179928885E-02   5   5   4   1
 -0.4973937671190683E-01   5   5   4   2
  0.3573530360512223E-15   5   5   4   3
  0.6848062362111453E+00   5   5   4   4
  0.7231490729384961E-16   5   5   5   1
  0.3545767796707173E-15   5   5   5   2
  0.1277156354794896E-15   5   5   5   3
  0.8757441097296004E-16   5   5   5   4
  0.7798720129173685E+00   5   5   5   5
  0.1681667208159999E+00   6   1   1   1
 -0.2782303965527287E-01   6   1   2   1
 -0.1913719364067895E-02   6   1   2   2
  0.1117268221163944E-15   6   1   3   1
  0.4068468652251855E-16   6   1   3   2
  0.1666492007269433E-02   6   1   3   3
 -0.1228976130748644E-02   6   1   4   1
 -0.1259235553487268E-01   6   1   4   2
  0.3744563253221811E-16   6   1   4   3
  0.1287343642471880E-01   6   1   4   4
  0.3040966856883925E-17   6   1   5   1
  0.7848063839618333E-17   6   1   5   2
 -0.9083130812546000E-18   6   1   5   3
 -0.4061745203043283E-17   6   1   5   4
  0.3707381999914137E-02   6   1   5   5
  0.1623596119254875E-01   6   1   6   1
 -0.2631553043223231E+00   6   2   1   1
  0.4364717063193520E-02   6   2   2   1
 -0.1359500656625212E+00   6   2   2   2
 -0.8705804631879699E-17   6   2   3   1
  0.1427894261163409E-15   6   2   3   2
 -0.1057167622605433E+00   6   2   3   3
 -0.1382116409841200E-01   6   2   4   1
 -0.1326547255078677E-01   6   2   4   2
 -0.1958069123508821E-15   6   2   4   3
 -0.8691204583246764E-01   6   2   4   4
 -0.5284421203577665E-17   6   2   5   1
 -0.3694056417501497E-16   6   2   5   2
 -0.1641525181844068E-16   6   2   5   3
 -0.3638865412861673E-16   6   2   5   4
 -0.1240416050827521E+00   6   2   5   5
  0.2958901245024804E-02   6   2   6   1
  0.6109586967333665E-01   6   2   6   2
  0.1620643682904457E-14   6   3   1   1
 -0.4848437765907296E-16   6   3   2   1
  0.6110429527346475E-15   6   3   2   2
 -0.6875168290528636E-02   6   3   3   1
 -0.8820903983849689E-02   6   3   3   2
  0.8946473914820986E-15   6   3   3   3
  0.1124478589127446E-16   6   3   4   1
 -0.3992506737542090E-15   6   3   4   2
  0.3985326074043087E-02   6   3   4   3
  0.6847625433424961E-15   6   3   4   4
 -0.5336497072100423E-19   6   3   5   1
  0.2458420862182457E-16   6   3   5   2
  0.2981774011898852E-18   6   3   5   3
  0.4715245992343809E-17   6   3   5   4
  0.8620609104106490E-15   6   3   5   5
  0.9330914946953373E-17   6   3   6   1
 -0.3247185506594086E-15   6   3   6   2
  0.2113630057636720E-01   6   3   6   3
 -0.1471480571679059E+00   6   4   1   1
  0.1546520307416397E-02   6   4   2   1
 -0.6488277688064416E-01   6   4   2   2
 -0.5893125851403388E-16   6   4   3   1
 -0.3801890443091982E-15   6   4   3   2
 -0.5500868646404115E-01   6   4   3   3
 -0.1843245760458745E-02   6   4   4   1
  0.1911928905183106E-01   6   4   4   2
 -0.1424506129374392E-15   6   4   4   3
 -0.8302929077707007E-01   6   4   4   4
 -0.1314672413937391E-16   6   4   5   1
 -0.6257579725937086E-16   6   4   5   2
  0.2098353010831477E-17   6   4   5   3
  0.3107287273933161E-17   6   4   5   4
 -0.7111174739274401E-01   6   4   5   5
  0.1277332741067205E-03   6   4   6   1
  0.3198067547785078E-01   6   4   6   2
 -0.4043532002284689E-15   6   4   6   3
  0.3296116844536771E-01   6   4   6   4
  0.2414314879135838E-15   6   5   1   1
 -0.8663364028198195E-17   6   5   2   1
  0.1472039302407233E-15   6   5   2   2
 -0.1574512510325143E-18   6   5   3   1
  0.1892071812187444E-16   6   5   3   2
  0.1586281839405350E-15   6   5   3   3
 -0.4315031521564440E-17   6   5   4   1
 -0.3068987214737747E-16   6   5   4   2
  0.5513107205165377E-17   6   5   4   3
  0.1758101315500052E-15   6   5   4   4
 -0.1002309655839930E-01   6   5   5   1
 -0.3066492378479286E-01   6   5   5   2
  0.1556660080093469E-15   6   5   5   3
  0.1822239377749321E-02   6   5   5   4
  0.1757227765013008E-15   6   5   5   5
  0.4660055686421124E-18   6   5   6   1
 -0.2555814850216006E-16   6   5   6   2
  0.1562229908895995E-16   6   5   6   3
 -0.1035506550819353E-16   6   5   6   4
  0.1581824757882708E-01   6   5   6   5
  0.5107878621749019E+00   6   6   1   1
 -0.2298355457666872E-02   6   6   2   1
  0.4438076729282550E+00   6   6   2   2
  0.3179422870813742E-16   6   6   3   1
 -0.4865899350114944E-15   6   6   3   2
  0.4114080015091987E+00   6   6   3   3
  0.1117766434857487E-01   6   6   4   1
  0.4479734361226467E-01   6   6   4   2
 -0.3903127820947816E-15   6   6   4   3
  0.3872548683080906E+00   6   6   4   4
  0.1978789865036663E-16   6   6   5   1
  0.8774223768166588E-16   6   6   5   2
  0.1140999138591390E-15   6   6   5   3
  0.5228214958381458E-16   6   6   5   4
  0.3992264519366417E+00   6   6   5   5
 -0.2927593631440070E-02   6   6   6   1
 -0.3248925369857134E-01   6   6   6   2
 -0.1734723475976807E-15   6   6   6   3
  0.1076327788968073E-02   6   6   6   4
  0.1132763318065100E-15   6   6   6   5
  0.3796726086306693E+00   6   6   6   6
  0.1815522644397632E-14   7   1   1   1
 -0.3040496761969828E-15   7   1   2   1
 -0.7182992938211007E-17   7   1   2   2
 -0.1488908216932992E-01   7   1   3   1
 -0.1513020280447747E-01   7   1   3   2
  0.7554604532412640E-16   7   1   3   3
  0.1199616764296007E-15   7   1   4   1
 -0.1119777556270185E-16   7   1   4   2
  0.5358883593190032E-02   7   1   4   3
  0.3319090891599919E-16   7   1   4   4
 -0.4371239002190524E-16   7   1   5   1
 -0.3847761764856563E-16   7   1   5   2
 -0.3357793960442960E-17   7   1   5   3
  0.1478513402588297E-16   7   1   5   4
  0.2271757303522529E-16   7   1   5   5
  0.9822400520641760E-16   7   1   6   1
 -0.5074066167232161E-16   7   1   6   2
  0.3876183622091864E-02   7   1   6   3
  0.4984619488002107E-16   7   1   6   4
  0.1136324737335122E-16   7   1   6   5
  0.7679425405253718E-16   7   1   6   6
  0.8656870304898642E-02   7   1   7   1
 -0.2413691837414648E-14   7   2   1   1
  0.4259156944502480E-16   7   2   2   1
 -0.1059221247920051E-14   7   2   2   2
 -0.1066858855406255E-01   7   2   3   1
 -0.2310486890698475E-01   7   2   3   2
 -0.4922227716250516E-15   7   2   3   3
 -0.4110905002909296E-16   7   2   4   1
  0.1008104732504178E-15   7   2   4   2
  0.2357793316604218E-01   7   2   4   3
 -0.1018348833073811E-14   7   2   4   4
 -0.2776580407163649E-16   7   2   5   1
 -0.5160420194690430E-16   7   2   5   2
 -0.2238909826029156E-16   7   2   5   3
  0.4589155669990183E-16   7   2   5   4
 -0.9751027437492483E-15   7   2   5   5
 -0.1925284713285343E-16   7   2   6   1
  0.3029260869924499E-15   7   2   6   2
  0.1748881501561473E-01   7   2   6   3
  0.2119615247209161E-15   7   2   6   4
  0.3898897482511150E-16   7   2   6   5
 -0.3372649213743546E-15   7   2   6   6
  0.6133932965170210E-02   7   2   7   1
  0.2490233601039973E-01   7   2   7   2
 -0.2842215960286499E+00   7   3   1   1
  0.6554773714533873E-02   7   3   2   1
 -0.1101147427666455E+00   7   3   2   2
 -0.2573497851995378E-16   7   3   3   1
  0.5360295540768334E-15   7   3   3   2
 -0.1226008046692236E+00   7   3   3   3
  0.8097729857593251E-03   7   3   4   1
  0.4841950693168661E-01   7   3   4   2
 -0.1886511780124778E-15   7   3   4   3
 -0.1310234147487855E+00   7   3   4   4
 -0.1262396851492661E-16   7   3   5   1
 -0.8323890686378235E-16   7   3   5   2
 -0.1754676703654085E-16   7   3   5   3
 -0.2192106014699628E-16   7   3   5   4
 -0.1338874913779395E+00   7   3   5   5
 -0.3323768793975576E-02   7   3   6   1
  0.4566519497433010E-01   7   3   6   2
 -0.2842778096256993E-15   7   3   6   3
  0.3698997930084234E-01   7   3   6   4
 -0.3103063419597444E-16   7   3   6   5
 -0.7496117625033243E-02   7   3   6   6
 -0.2195509399283146E-17   7   3   7   1
  0.5869870561836521E-15   7   3   7   2
  0.7647286828095143E-01   7   3   7   3
  0.1027147172465586E-14   7   4   1   1
 -0.4252105395216588E-16   7   4   2   1
  0.3522255568623275E-15   7   4   2   2
  0.8136142475226812E-02   7   4   3   1
  0.4720235506080050E-01   7   4   3   2
  0.2952515339891857E-15   7   4   3   3
 -0.9922313350726325E-16   7   4   4   1
 -0.5498802368303357E-15   7   4   4   2
 -0.1354159578881713E-01   7   4   4   3
  0.5512251810934099E-15   7   4   4   4
  0.2058375035534434E-16   7   4   5   1
  0.9056943029746806E-16   7   4   5   2
 -0.6750437808940284E-17   7   4   5   3
 -0.3108913611015922E-16   7   4   5   4
  0.4663507232993728E-15   7   4   5   5
  0.7819808169051701E-16   7   4   6   1
  0.1517883041479706E-17   7   4   6   2
  0.1017483506985279E-01   7   4   6   3
 -0.4080936977235439E-15   7   4   6   4
  0.1530444566895898E-16   7   4   6   5
 -0.4924662870837359E-15   7   4   6   6
 -0.4646443967112685E-02   7   4   7   1
 -0.1442073797013312E-02   7   4   7   2
 -0.4943961906533900E-16   7   4   7   3
  0.2905774261490641E-01   7   4   7   4
 -0.7129324399996104E-15   7   5   1   1
  0.1812630640788700E-16   7   5   2   1
 -0.2622200296495595E-15   7   5   2   2
 -0.5664125893636013E-17   7   5   3   1
 -0.3497796728237499E-16   7   5   3   2
 -0.2421695627014613E-15   7   5   3   3
 -0.9347161977785100E-18   7   5   4   1
  0.9630209619754750E-16   7   5   4   2
 -0.3773167161567656E-17   7   5   4   3
 -0.2955020912758899E-15   7   5   4   4
 -0.1111455853706625E-15   7   5   5   1
 -0.2905914698647169E-15   7   5   5   2
 -0.1281651759415234E-01   7   5   5   3
  0.1292145784491371E-15   7   5   5   4
 -0.3593988161317218E-15   7   5   5   5
 -0.8215771135039721E-17   7   5   6   1
  0.1099676186401066E-15   7   5   6   2
 -0.4924128357315886E-17   7   5   6   3
  0.8163214096307964E-16   7   5   6   4
  0.7373562336298808E-16   7   5   6   5
 -0.1959837435291363E-16   7   5   6   6
  0.3191691906447712E-17   7   5   7   1
  0.3814223774433768E-17   7   5   7   2
  0.1586015578642103E-15   7   5   7   3
 -0.1081377632981547E-16   7   5   7   4
  0.7516817089524229E-02   7   5   7   5
  0.3329403572679504E-15   7   6   1   1
  0.4557037256228136E-17   7   6   2   1
  0.2261635238765484E-15   7   6   2   2
  0.6308191937313046E-02   7   6   3   1
  0.5421248642826018E-01   7   6   3   2
  0.1636938354738250E-16   7   6   3   3
  0.4180700517763050E-16   7   6   4   1
 -0.1585645677260050E-15   7   6   4   2
  0.1366560804695430E-01   7   6   4   3
 -0.3341967196695744E-15   7   6   4   4
  0.1687160077381943E-16   7   6   5   1
  0.1088698697024172E-15   7   6   5   2
 -0.1561388945737883E-16   7   6   5   3
  0.2092581325493955E-16   7   6   5   4
  0.9982320649237582E-17   7   6   5   5
 -0.3171630167699002E-16   7   6   6   1
 -0.2164067536281067E-15   7   6   6   2
  0.2165478715328094E-01   7   6   6   3
 -0.5022024462952857E-15   7   6   6   4
  0.3869693113640374E-16   7   6   6   5
 -0.8712074476073073E-15   7   6   6   6
 -0.3361007954894992E-02   7   6   7   1
  0.1597800152417098E-01   7   6   7   2
  0.3391384395534658E-15   7   6   7   3
  0.3165938242263161E-01   7   6   7   4
 -0.8339359412966983E-17   7   6   7   5
  0.8068898886624634E-01   7   6   7   6
  0.4836657706035092E+00   7   7   1   1
 -0.2815134295841223E-02   7   7   2   1
  0.4196163229458028E+00   7   7   2   2
  0.2013498959577142E-15   7   7   3   1
  0.1139713323716762E-14   7   7   3   2
  0.4175289967420305E+00   7   7   3   3
  0.2849366431672159E-02   7   7   4   1
  0.2025728418217246E-01   7   7   4   2
  0.3642919299551295E-16   7   7   4   3
  0.3880678916977274E+00   7   7   4   4
  0.2470358423019459E-16   7   7   5   1
  0.1011083794983365E-15   7   7   5   2
  0.1506450920370113E-15   7   7   5   3
  0.4283808597737457E-16   7   7   5   4
  0.3860982849676207E+00   7   7   5   5
  0.3543325924905173E-03   7   7   6   1
 -0.1796439597611843E-01   7   7   6   2
  0.4996003610813204E-15   7   7   6   3
  0.5694876724069167E-02   7   7   6   4
  0.1023443831129584E-15   7   7   6   5
  0.3619433388286020E+00   7   7   6   6
 -0.2959871930885427E-16   7   7   7   1
  0.4857225732735060E-16   7   7   7   2
 -0.8455062675913144E-02   7   7   7   3
  0.6730727086790012E-15   7   7   7   4
 -0.2141272131059575E-16   7   7   7   5
  0.1332267629550188E-14   7   7   7   6
  0.3728617453322430E+00   7   7   7   7
  0.1327510709526490E-14   8   1   1   1
 -0.2769878338000449E-15   8   1   2   1
 -0.1355385103580000E-15   8   1   2   2
  0.2552168522251063E-02   8   1   3   1
  0.2433020477890879E-02   8   1   3   2
  0.6840507277104068E-17   8   1   3   3
 -0.2743329413757743E-15   8   1   4   1
 -0.3100473047382537E-15   8   1   4   2
 -0.1970827910870235E-03   8   1   4   3
  0.2787541691657582E-15   8   1   4   4
  0.4818396684871728E-16   8   1   5   1
  0.4259881148756856E-16   8   1   5   2
 -0.2500949382238320E-18   8   1   5   3
 -0.1705965301565904E-16   8   1   5   4
  0.4526368567114472E-16   8   1   5   5
  0.2707802999065326E-15   8   1   6   1
  0.1299551828995438E-15   8   1   6   2
 -0.7328910031408706E-03   8   1   6   3
  0.1040156459228281E-16   8   1   6   4
 -0.1416842785159569E-16   8   1   6   5
 -0.1167740631626073E-15   8   1   6   6
 -0.1479336815234291E-02   8   1   7   1
 -0.8074058990311420E-03   8   1   7   2
 -0.5959046190523454E-16   8   1   7   3
  0.4845873768873525E-03   8   1   7   4
 -0.2040200234935531E-18   8   1   7   5
  0.6595249780651673E-03   8   1   7   6
  0.2460268994531639E-16   8   1   7   7
  0.2710578890886501E-03   8   1   8   1
 -0.2631888728969115E-14   8   2   1   1
  0.6626762262844019E-16   8   2   2   1
 -0.1140795137757317E-14   8   2   2   2
  0.2442183549523672E-02   8   2   3   1
  0.3241045737414932E-01   8   2   3   2
 -0.5540007802261665E-15   8   2   3   3
 -0.2429883415788411E-15   8   2   4   1
 -0.4985568164903031E-15   8   2   4   2
  0.2661675519154781E-01   8   2   4   3
 -0.1042750427919669E-14   8   2   4   4
  0.2994158989187805E-16   8   2   5   1
  0.1229406546402534E-15   8   2   5   2
 -0.3331023721905885E-16   8   2   5   3
  0.2208311778123132E-16   8   2   5   4
 -0.7721662070766101E-15   8   2   5   5
  0.5797262897597882E-16   8   2   6   1
  0.3898791012257874E-15   8   2   6   2
  0.2888454801966499E-02   8   2   6   3
  0.1509209424099822E-15   8   2   6   4
 -0.2264126343424723E-16   8   2   6   5
 -0.9056427262498213E-15   8   2   6   6
 -0.1180836827188444E-02   8   2   7   1
  0.1307535204735335E-01   8   2   7   2
  0.4649058915617843E-15   8   2   7   3
  0.1059739849804615E-01   8   2   7   4
 -0.1170476680778096E-16   8   2   7   5
  0.2192006394536775E-01   8   2   7   6
  0.4494202137874307E-15   8   2   7   7
  0.5156467006734365E-03   8   2   8   1
  0.3975480494477865E-01   8   2   8   2
  0.5000630043913969E-01   8   3   1   1
  0.8986745228024423E-03   8   3   2   1
  0.7209622304799421E-01   8   3   2   2
  0.3474529149637140E-16   8   3   3   1
  0.5793976409762536E-15   8   3   3   2
  0.4592549111100505E-01   8   3   3   3
  0.6693361960492326E-02   8   3   4   1
  0.5618960466391407E-01   8   3   4   2
 -0.3287300986976049E-15   8   3   4   3
  0.1892601189185378E-01   8   3   4   4
 -0.2787382638840507E-17   8   3   5   1
 -0.4859838910518707E-16   8   3   5   2
  0.7675985158121668E-16   8   3   5   3
 -0.8842234797374174E-17   8   3   5   4
  0.2171892089802960E-01   8   3   5   5
 -0.2782889357490093E-02   8   3   6   1
 -0.9575659258034851E-02   8   3   6   2
 -0.1075528555105620E-15   8   3   6   3
  0.1066137328745240E-01   8   3   6   4
 -0.1898846121822468E-17   8   3   6   5
  0.4736717099566003E-01   8   3   6   6
 -0.1450120405699362E-16   8   3   7   1
  0.3989863994746656E-16   8   3   7   2
  0.2156295799793726E-01   8   3   7   3
  0.1439820485060750E-15   8   3   7   4
  0.1767318085668250E-16   8   3   7   5
  0.1804112415015879E-15   8   3   7   6
  0.3950462582773725E-01   8   3   7   7
 -0.7705628127761821E-16   8   3   8   1
 -0.1444157293750692E-15   8   3   8   2
  0.6051264774869861E-01   8   3   8   3
 -0.4550754440801388E-14   8   4   1   1
  0.1144426215035285E-15   8   4   2   1
 -0.2198566751276447E-14   8   4   2   2
  0.5560948490046389E-02   8   4   3   1
  0.5673070498004058E-01   8   4   3   2
 -0.1859265194412578E-14   8   4   3   3
 -0.1222048314321669E-15   8   4   4   1
 -0.6834539444805499E-15   8   4   4   2
  0.3258710064585885E-02   8   4   4   3
 -0.1877936667106803E-14   8   4   4   4
  0.1914880354828929E-17   8   4   5   1
  0.7800669921968850E-16   8   4   5   2
 -0.1892638343940143E-16   8   4   5   3
  0.3048641289460370E-16   8   4   5   4
 -0.1801469039754040E-14   8   4   5   5
  0.3141645201366200E-17   8   4   6   1
  0.5689893001203927E-15   8   4   6   2
  0.8162619361934055E-02   8   4   6   3
 -0.9410874857174178E-16   8   4   6   4
  0.1123287111878432E-16   8   4   6   5
 -0.1301463090218738E-14   8   4   6   6
 -0.3000964419800007E-02   8   4   7   1
  0.3635666138859697E-02   8   4   7   2
  0.6045511313779173E-15   8   4   7   3
  0.2634012933858591E-01   8   4   7   4
 -0.1879769423863998E-16   8   4   7   5
  0.2870435997408964E-01   8   4   7   6
 -0.4047420588494136E-15   8   4   7   7
  0.5613663514940278E-03   8   4   8   1
  0.2728576457473334E-01   8   4   8   2
 -0.4371503159461554E-15   8   4   8   3
  0.4002975870509178E-01   8   4   8   4
  0.8378805468422280E-15   8   5   1   1
 -0.1487052266349516E-16   8   5   2   1
  0.4830523471781864E-15   8   5   2   2
 -0.6647257555692898E-17   8   5   3   1
 -0.7734913120270067E-16   8   5   3   2
  0.4272149814632653E-15   8   5   3   3
  0.1820764847216734E-16   8   5   4   1
  0.5557154413872413E-16   8   5   4   2
 -0.1807874495468589E-16   8   5   4   3
  0.3796779972071988E-15   8   5   4   4
 -0.1598686777399650E-16   8   5   5   1
  0.1889193894042952E-15   8   5   5   2
 -0.5299407251538951E-02   8   5   5   3
 -0.1053995177680530E-15   8   5   5   4
  0.4228691394501439E-15   8   5   5   5
  0.5399731807829096E-18   8   5   6   1
 -0.1136429528064092E-15   8   5   6   2
 -0.1549344425980009E-16   8   5   6   3
 -0.3706933752469026E-16   8   5   6   4
  0.3596906000623826E-16   8   5   6   5
  0.2357419158624279E-15   8   5   6   6
  0.3551089576268426E-17   8   5   7   1
 -0.1074656780297506E-16   8   5   7   2
 -0.7254593447935680E-16   8   5   7   3
 -0.3355098228345634E-16   8   5   7   4
  0.1977395306987306E-02   8   5   7   5
 -0.4917713226281903E-16   8   5   7   6
  0.2129919712118787E-15   8   5   7   7
 -0.6360857678486242E-18   8   5   8   1
 -0.4083939973940024E-16   8   5   8   2
  0.1057498300071911E-15   8   5   8   3
 -0.4986713342573072E-16   8   5   8   4
  0.4920224589281487E-02   8   5   8   5
  0.2141015889455902E-14   8   6   1   1
 -0.6779545830705013E-16   8   6   2   1
  0.5791213720383954E-15   8   6   2   2
 -0.1900265693067587E-02   8   6   3   1
 -0.8283996668365275E-02   8   6   3   2
  0.3705153413139772E-15   8   6   3   3
  0.1688762409467605E-15   8   6   4   1
  0.2285023841148981E-15   8   6   4   2
  0.8728990542007207E-02   8   6   4   3
  0.2187837796819594E-16   8   6   4   4
 -0.1629773308888001E-16   8   6   5   1
 -0.6211074047931485E-16   8   6   5   2
 -0.1076382270076966E-16   8   6   5   3
  0.2165411595585559E-16   8   6   5   4
  0.4810555071896096E-15   8   6   5   5
 -0.1034227228597501E-17   8   6   6   1
 -0.5388484797252957E-15   8   6   6   2
 -0.1928585930893768E-03   8   6   6   3
 -0.1805738718274608E-15   8   6   6   4
  0.1071770860087796E-16   8   6   6   5
  0.1942092592063385E-15   8   6   6   6
  0.1062244584948001E-02   8   6   7   1
  0.6173432580283399E-02   8   6   7   2
 -0.1707618421664669E-15   8   6   7   3
 -0.1772590336572100E-02   8   6   7   4
 -0.6044048412039198E-17   8   6   7   5
 -0.9353424965603348E-02   8   6   7   6
 -0.3284157519502950E-15   8   6   7   7
 -0.1377197611477094E-03   8   6   8   1
  0.1275822145636622E-01   8   6   8   2
 -0.6212478448341940E-16   8   6   8   3
  0.3005596039351170E-02   8   6   8   4
 -0.2880702769509382E-17   8   6   8   5
  0.1748599930858105E-01   8   6   8   6
  0.6109893471277440E-01   8   7   1   1
  0.6373352192561403E-03   8   7   2   1
  0.7589676576343445E-01   8   7   2   2
  0.2136555906154247E-16   8   7   3   1
  0.1999268806063270E-15   8   7   3   2
  0.7011263468738022E-01   8   7   3   3
  0.1019788829914373E-03   8   7   4   1
  0.1235504950377990E-01   8   7   4   2
  0.9454242944073599E-16   8   7   4   3
  0.6831291407410423E-01   8   7   4   4
  0.3845034367474790E-17   8   7   5   1
  0.2497961050870906E-18   8   7   5   2
  0.2157425839353049E-16   8   7   5   3
 -0.8895299117816525E-17   8   7   5   4
  0.5634487716685622E-01   8   7   5   5
 -0.3689465475358355E-03   8   7   6   1
 -0.4730595200530312E-02   8   7   6   2
 -0.6418476861114186E-16   8   7   6   3
 -0.5624352340906635E-03   8   7   6   4
  0.4294748239900456E-17   8   7   6   5
  0.3417223114585974E-01   8   7   6   6
 -0.2097931203759451E-16   8   7   7   1
  0.1162264728904461E-15   8   7   7   2
 -0.2310584008251116E-02   8   7   7   3
 -0.5204170427930421E-17   8   7   7   4
 -0.7344935607664281E-17   8   7   7   5
 -0.8326672684688674E-16   8   7   7   6
  0.3269927260263151E-01   8   7   7   7
  0.5019940761902611E-17   8   7   8   1
  0.1214306433183765E-15   8   7   8   2
  0.2898936122089984E-01   8   7   8   3
 -0.2515349040166370E-15   8   7   8   4
  0.7670849827051355E-16   8   7   8   5
 -0.2372234353398284E-15   8   7   8   6
  0.3455883504489572E-01   8   7   8   7
  0.4791103031093836E+00   8   8   1   1
  0.1513428004838349E-02   8   8   2   1
  0.5091199161960824E+00   8   8   2   2
  0.2428612866367530E-16   8   8   3   1
 -0.1734723475976807E-15   8   8   3   2
  0.4893887368228143E+00   8   8   3   3
  0.5621222919515671E-02   8   8   4   1
  0.5788212698507139E-01   8   8   4   2
 -0.4996003610813204E-15   8   8   4   3
  0.4464166752515467E+00   8   8   4   4
  0.2489393037777064E-16   8   8   5   1
  0.7089699899041508E-16   8   8   5   2
  0.1933903295691161E-15   8   8   5   3
  0.2526131748223183E-16   8   8   5   4
  0.4346959554291155E+00   8   8   5   5
 -0.2818605439874913E-02   8   8   6   1
 -0.2607913449086702E-01   8   8   6   2
 -0.1040834085586084E-15   8   8   6   3
 -0.1254575381268386E-02   8   8   6   4
  0.1051581799918490E-15   8   8   6   5
  0.3787564114000008E+00   8   8   6   6
 -0.9324138683375338E-17   8   8   7   1
 -0.6938893903907228E-16   8   8   7   2
 -0.2067044601985202E-03   8   8   7   3
 -0.2220446049250313E-15   8   8   7   4
 -0.1036352273824491E-16   8   8   7   5
 -0.4440892098500626E-15   8   8   7   6
  0.3818134787132897E+00   8   8   7   7
 -0.5625654022484161E-16   8   8   8   1
 -0.8647596527744383E-15   8   8   8   2
  0.8498041850629851E-01   8   8   8   3
 -0.1564720575331080E-14   8   8   8   4
  0.2897915283045961E-15   8   8   8   5
 -0.5689893001203927E-15   8   8   8   6
  0.8134558024724253E-01   8   8   8   7
  0.5160202735510073E+00   8   8   8   8
 -0.5587369093158399E-14   9   1   1   1
  0.2282490085003901E-15   9   1   2   1
 -0.1411698985551106E-14   9   1   2   2
  0.2016599569141870E-15   9   1   3   1
  0.1886390423060424E-15   9   1   3   2
 -0.3658853702925526E-15   9   1   3   3
 -0.2422588429517080E-14   9   1   4   1
 -0.1705266393000214E-14   9   1   4   2
 -0.6944001091646120E-16   9   1   4   3
  0.1292816134574398E-14   9   1   4   4
 -0.3789529544945691E-01   9   1   5   1
 -0.3319864697197582E-01   9   1   5   2
  0.9866526620339998E-16   9   1   5   3
  0.1465489757962957E-01   9   1   5   4
 -0.2036028013206472E-15   9   1   5   5
  0.7486288215174413E-15   9   1   6   1
  0.9890937128113559E-15   9   1   6   2
 -0.5303380589062773E-16   9   1   6   3
  0.1415251113303400E-15   9   1   6   4
  0.1104392705150055E-01   9   1   6   5
 -0.8172468991851944E-15   9   1   6   6
 -0.7264734366755397E-16   9   1   7   1
 -0.5119423431506196E-16   9   1   7   2
 -0.1542419111933179E-15   9   1   7   3
  0.3864977496476613E-16   9   1   7   4
  0.1204104395282454E-15   9   1   7   5
  0.2864192523595447E-16   9   1   7   6
 -0.1713459621985215E-15   9   1   7   7
 -0.3626570335572316E-16   9   1   8   1
 -0.1531840561869996E-16   9   1   8   2
 -0.4958089364161322E-15   9   1   8   3
  0.3850071590609846E-16   9   1   8   4
  0.1947547477925382E-16   9   1   8   5
  0.3593188009127925E-17   9   1   8   6
 -0.1480362251443507E-16   9   1   8   7
 -0.4428987461055127E-15   9   1   8   8
  0.4550360501156164E-01   9   1   9   1
 -0.1843951427861469E-14   9   2   1   1
 -0.2560729222050403E-15   9   2   2   1
 -0.1326730230549144E-14   9   2   2   2
  0.1028793613958318E-15   9   2   3   1
  0.2313697891748236E-15   9   2   3   2
 -0.1670873024388758E-15   9   2   3   3
 -0.9508157848347466E-15   9   2   4   1
 -0.1323994746897937E-14   9   2   4   2
 -0.7638356352874951E-16   9   2   4   3
  0.1187597909357047E-14   9   2   4   4
 -0.1842988939685659E-01   9   2   5   1
 -0.3619677550706087E-01   9   2   5   2
  0.1038801339791464E-15   9   2   5   3
  0.1468548500058925E-01   9   2   5   4
 -0.6039039884812979E-15   9   2   5   5
  0.4843348256415909E-15   9   2   6   1
  0.1696752143556468E-14   9   2   6   2
 -0.1136097045728076E-15   9   2   6   3
  0.1002392410231872E-14   9   2   6   4
  0.1939204620751302E-01   9   2   6   5
 -0.1008678714747308E-15   9   2   6   6
 -0.3750868242388464E-16   9   2   7   1
 -0.8556222231055864E-16   9   2   7   2
  0.5828768299778639E-15   9   2   7   3
  0.2832678268353790E-16   9   2   7   4
  0.2062676532061419E-15   9   2   7   5