in init
3
 &FCI NORB= 72,NELEC=14,MS2= 0,

4
  ORBSYM=1,1,1,1,1,1,1,1,1,1,1,1,1,1,1,1,1,1,1,1,1,1,1,1,1,1,1,1,1,1,1,1,1,1,1,1,1,1,1,1,1,1,1,1,1,1,1,1,1,1,1,1,1,1,1,1,1,1,1,1,1,1,1,1,1,1,1,1,1,1,1,1,

5
  ISYM=0

6
 &END

found the Namelist
NORB= 72
read the namelist
found E_nucc
finished init
NELECd= 15 NELECs= 1 NELECe= 56 NORB= 72
ENERGY: -293.882471043 ITERATION: 1
ENERGY: -276.558008601 ITERATION: 1
ENERGY: -292.35097457 ITERATION: 2
ENERGY: -310.375403091 ITERATION: 2
ENERGY: -292.70398384 ITERATION: 3
ENERGY: -284.629629082 ITERATION: 3
ENERGY: -293.875579244 ITERATION: 4
ENERGY: -300.907589419 ITERATION: 4
ENERGY: -295.019996008 ITERATION: 5
ENERGY: -292.915072633 ITERATION: 5
ENERGY: -295.44507357 ITERATION: 6
ENERGY: -296.769548118 ITERATION: 6
ENERGY: -295.653457946 ITERATION: 7
ENERGY: -295.050334497 ITERATION: 7
ENERGY: -295.719884101 ITERATION: 8
ENERGY: -296.063225217 ITERATION: 8
ENERGY: -295.748233824 ITERATION: 9
ENERGY: -295.546271227 ITERATION: 9
ENERGY: -295.763340222 ITERATION: 10
ENERGY: -295.851093711 ITERATION: 10
ENERGY: -295.771392018 ITERATION: 11
ENERGY: -295.706205989 ITERATION: 11
ENERGY: -295.777832152 ITERATION: 12
ENERGY: -295.792794583 ITERATION: 12
ENERGY: -295.784003093 ITERATION: 13
ENERGY: -295.757699269 ITERATION: 13
ENERGY: -295.791419564 ITERATION: 14
ENERGY: -295.783741647 ITERATION: 14
ENERGY: -295.800135153 ITERATION: 15
ENERGY: -295.780671988 ITERATION: 15
ENERGY: -295.809504771 ITERATION: 16
ENERGY: -295.794839409 ITERATION: 16
ENERGY: -295.818181814 ITERATION: 17
ENERGY: -295.803093443 ITERATION: 17
ENERGY: -295.825114901 ITERATION: 18
ENERGY: -295.814392813 ITERATION: 18
ENERGY: -295.830016744 ITERATION: 19
ENERGY: -295.821763545 ITERATION: 19
ENERGY: -295.833211419 ITERATION: 20
ENERGY: -295.827617776 ITERATION: 20
ENERGY: -295.83520233 ITERATION: 21
ENERGY: -295.831163168 ITERATION: 21
ENERGY: -295.836420576 ITERATION: 22
ENERGY: -295.833614986 ITERATION: 22
ENERGY: -295.837164276 ITERATION: 23
ENERGY: -295.835129577 ITERATION: 23
ENERGY: -295.837621164 ITERATION: 24
ENERGY: -295.836160351 ITERATION: 24
ENERGY: -295.837904832 ITERATION: 25
ENERGY: -295.83683049 ITERATION: 25
ENERGY: -295.838083128 ITERATION: 26
ENERGY: -295.837294192 ITERATION: 26
ENERGY: -295.838196608 ITERATION: 27
ENERGY: -295.837610035 ITERATION: 27
ENERGY: -295.838269708 ITERATION: 28
ENERGY: -295.837833136 ITERATION: 28
ENERGY: -295.838317315 ITERATION: 29
ENERGY: -295.837990224 ITERATION: 29
ENERGY: -295.838348618 ITERATION: 30
ENERGY: -295.838103101 ITERATION: 30
ENERGY: -295.838369366 ITERATION: 31
ENERGY: -295.838184329 ITERATION: 31
ENERGY: -295.838383207 ITERATION: 32
ENERGY: -295.838243458 ITERATION: 32
ENERGY: -295.838392481 ITERATION: 33
ENERGY: -295.838286624 ITERATION: 33
ENERGY: -295.838398712 ITERATION: 34
ENERGY: -295.838318357 ITERATION: 34
ENERGY: -295.838402901 ITERATION: 35
ENERGY: -295.838341756 ITERATION: 35
ENERGY: -295.838405713 ITERATION: 36
ENERGY: -295.838359091 ITERATION: 36
ENERGY: -295.838407592 ITERATION: 37
ENERGY: -295.838371969 ITERATION: 37
ENERGY: -295.83840884 ITERATION: 38
ENERGY: -295.838381568 ITERATION: 38
ENERGY: -295.838409659 ITERATION: 39
ENERGY: -295.838388742 ITERATION: 39
ENERGY: -295.838410188 ITERATION: 40
ENERGY: -295.838394116 ITERATION: 40
ENERGY: -295.838410522 ITERATION: 41
ENERGY: -295.838398152 ITERATION: 41
ENERGY: -295.838410725 ITERATION: 42
ENERGY: -295.838401189 ITERATION: 42
ENERGY: -295.838410842 ITERATION: 43
ENERGY: -295.838403479 ITERATION: 43
ENERGY: -295.838410903 ITERATION: 44
ENERGY: -295.838405209 ITERATION: 44
ENERGY: -295.838410927 ITERATION: 45
ENERGY: -295.838406518 ITERATION: 45
ENERGY: -295.83841093 ITERATION: 46
ENERGY: -295.83840751 ITERATION: 46
ENERGY: -295.83841092 ITERATION: 47
ENERGY: -295.838408263 ITERATION: 47
ENERGY: -295.838410902 ITERATION: 48
ENERGY: -295.838408836 ITERATION: 48
ENERGY: -295.838410882 ITERATION: 49
ENERGY: -295.838409272 ITERATION: 49
ENERGY: -295.838410861 ITERATION: 50
ENERGY: -295.838409605 ITERATION: 50
ENERGY: -295.83841084 ITERATION: 51
ENERGY: -295.838409859 ITERATION: 51
ENERGY: -295.838410821 ITERATION: 52
ENERGY: -295.838410053 ITERATION: 52
ENERGY: -295.838410804 ITERATION: 53
ENERGY: -295.838410202 ITERATION: 53
ENERGY: -295.838410789 ITERATION: 54
ENERGY: -295.838410317 ITERATION: 54
ENERGY: -295.838410776 ITERATION: 55
ENERGY: -295.838410405 ITERATION: 55
finished calculating
skipped newFCIDUMP
