in init
3
 &FCI NORB= 72,NELEC=14,MS2= 0,

4
  ORBSYM=1,1,1,1,1,1,1,1,1,1,1,1,1,1,1,1,1,1,1,1,1,1,1,1,1,1,1,1,1,1,1,1,1,1,1,1,1,1,1,1,1,1,1,1,1,1,1,1,1,1,1,1,1,1,1,1,1,1,1,1,1,1,1,1,1,1,1,1,1,1,1,1,

5
  ISYM=0

6
 &END

found the Namelist
NORB= 72
read the namelist
found E_nucc
finished init
NELECd= 15 NELECs= 1 NELECe= 56 NORB= 72
ENERGY: -294.358405609 ITERATION: 1
ENERGY: -277.26061811 ITERATION: 1
ENERGY: -292.863719725 ITERATION: 2
ENERGY: -311.825593567 ITERATION: 2
ENERGY: -293.143272005 ITERATION: 3
ENERGY: -284.997064117 ITERATION: 3
ENERGY: -294.678293815 ITERATION: 4
ENERGY: -302.444865289 ITERATION: 4
ENERGY: -296.028952416 ITERATION: 5
ENERGY: -294.425905664 ITERATION: 5
ENERGY: -296.490879057 ITERATION: 6
ENERGY: -297.163561804 ITERATION: 6
ENERGY: -296.583173444 ITERATION: 7
ENERGY: -296.170447623 ITERATION: 7
ENERGY: -296.623631522 ITERATION: 8
ENERGY: -296.653279162 ITERATION: 8
ENERGY: -296.65068615 ITERATION: 9
ENERGY: -296.561107554 ITERATION: 9
ENERGY: -296.66907863 ITERATION: 10
ENERGY: -296.666220089 ITERATION: 10
ENERGY: -296.679604809 ITERATION: 11
ENERGY: -296.657115274 ITERATION: 11
ENERGY: -296.685176849 ITERATION: 12
ENERGY: -296.681424615 ITERATION: 12
ENERGY: -296.687970887 ITERATION: 13
ENERGY: -296.680796419 ITERATION: 13
ENERGY: -296.689374367 ITERATION: 14
ENERGY: -296.687054163 ITERATION: 14
ENERGY: -296.690096017 ITERATION: 15
ENERGY: -296.687438832 ITERATION: 15
ENERGY: -296.690481696 ITERATION: 16
ENERGY: -296.689252958 ITERATION: 16
ENERGY: -296.690697101 ITERATION: 17
ENERGY: -296.689585594 ITERATION: 17
ENERGY: -296.690822206 ITERATION: 18
ENERGY: -296.69018378 ITERATION: 18
ENERGY: -296.690897517 ITERATION: 19
ENERGY: -296.690380788 ITERATION: 19
ENERGY: -296.690944026 ITERATION: 20
ENERGY: -296.690607137 ITERATION: 20
ENERGY: -296.690973348 ITERATION: 21
ENERGY: -296.690713745 ITERATION: 21
ENERGY: -296.690992062 ITERATION: 22
ENERGY: -296.690810609 ITERATION: 22
ENERGY: -296.691004109 ITERATION: 23
ENERGY: -296.690866863 ITERATION: 23
ENERGY: -296.691011889 ITERATION: 24
ENERGY: -296.690912305 ITERATION: 24
ENERGY: -296.691016915 ITERATION: 25
ENERGY: -296.690941934 ITERATION: 25
ENERGY: -296.691020151 ITERATION: 26
ENERGY: -296.690964611 ITERATION: 26
ENERGY: -296.691022223 ITERATION: 27
ENERGY: -296.690980347 ITERATION: 27
ENERGY: -296.691023536 ITERATION: 28
ENERGY: -296.690992134 ITERATION: 28
ENERGY: -296.691024357 ITERATION: 29
ENERGY: -296.691000597 ITERATION: 29
ENERGY: -296.691024859 ITERATION: 30
ENERGY: -296.691006899 ITERATION: 30
ENERGY: -296.691025158 ITERATION: 31
ENERGY: -296.691011513 ITERATION: 31
ENERGY: -296.691025328 ITERATION: 32
ENERGY: -296.691014954 ITERATION: 32
ENERGY: -296.691025417 ITERATION: 33
ENERGY: -296.691017504 ITERATION: 33
ENERGY: -296.691025457 ITERATION: 34
ENERGY: -296.691019414 ITERATION: 34
ENERGY: -296.691025467 ITERATION: 35
ENERGY: -296.691020842 ITERATION: 35
ENERGY: -296.691025462 ITERATION: 36
ENERGY: -296.691021916 ITERATION: 36
ENERGY: -296.691025448 ITERATION: 37
ENERGY: -296.691022725 ITERATION: 37
ENERGY: -296.69102543 ITERATION: 38
ENERGY: -296.691023337 ITERATION: 38
ENERGY: -296.691025412 ITERATION: 39
ENERGY: -296.6910238 ITERATION: 39
ENERGY: -296.691025395 ITERATION: 40
ENERGY: -296.691024152 ITERATION: 40
ENERGY: -296.691025379 ITERATION: 41
ENERGY: -296.69102442 ITERATION: 41
ENERGY: -296.691025365 ITERATION: 42
ENERGY: -296.691024624 ITERATION: 42
ENERGY: -296.691025353 ITERATION: 43
ENERGY: -296.69102478 ITERATION: 43
ENERGY: -296.691025343 ITERATION: 44
ENERGY: -296.691024899 ITERATION: 44
ENERGY: -296.691025335 ITERATION: 45
ENERGY: -296.69102499 ITERATION: 45
finished calculating
skipped newFCIDUMP
