in init
3
 &FCI NORB= 72,NELEC=14,MS2= 0,

4
  ORBSYM=1,1,1,1,1,1,1,1,1,1,1,1,1,1,1,1,1,1,1,1,1,1,1,1,1,1,1,1,1,1,1,1,1,1,1,1,1,1,1,1,1,1,1,1,1,1,1,1,1,1,1,1,1,1,1,1,1,1,1,1,1,1,1,1,1,1,1,1,1,1,1,1,

5
  ISYM=0

6
 &END

found the Namelist
NORB= 72
read the namelist
found E_nucc
finished init
NELECd= 15 NELECs= 1 NELECe= 56 NORB= 72
ENERGY: -294.479752318 ITERATION: 1
ENERGY: -277.481871066 ITERATION: 1
ENERGY: -293.007479752 ITERATION: 2
ENERGY: -311.802704812 ITERATION: 2
ENERGY: -293.412264263 ITERATION: 3
ENERGY: -285.676897284 ITERATION: 3
ENERGY: -295.038799126 ITERATION: 4
ENERGY: -302.180575893 ITERATION: 4
ENERGY: -296.320343085 ITERATION: 5
ENERGY: -295.064000671 ITERATION: 5
ENERGY: -296.72703197 ITERATION: 6
ENERGY: -297.290282527 ITERATION: 6
ENERGY: -296.788646295 ITERATION: 7
ENERGY: -296.454984988 ITERATION: 7
ENERGY: -296.81414412 ITERATION: 8
ENERGY: -296.803051878 ITERATION: 8
ENERGY: -296.832649669 ITERATION: 9
ENERGY: -296.725710035 ITERATION: 9
ENERGY: -296.849716282 ITERATION: 10
ENERGY: -296.814923057 ITERATION: 10
ENERGY: -296.863414424 ITERATION: 11
ENERGY: -296.828863643 ITERATION: 11
ENERGY: -296.873171868 ITERATION: 12
ENERGY: -296.859172555 ITERATION: 12
ENERGY: -296.879359683 ITERATION: 13
ENERGY: -296.868485599 ITERATION: 13
ENERGY: -296.88300589 ITERATION: 14
ENERGY: -296.877848359 ITERATION: 14
ENERGY: -296.885057047 ITERATION: 15
ENERGY: -296.88133539 ITERATION: 15
ENERGY: -296.88619101 ITERATION: 16
ENERGY: -296.884224096 ITERATION: 16
ENERGY: -296.886819573 ITERATION: 17
ENERGY: -296.885456188 ITERATION: 17
ENERGY: -296.887173773 ITERATION: 18
ENERGY: -296.886389318 ITERATION: 18
ENERGY: -296.887378232 ITERATION: 19
ENERGY: -296.886837025 ITERATION: 19
ENERGY: -296.887499371 ITERATION: 20
ENERGY: -296.887160764 ITERATION: 20
ENERGY: -296.887572976 ITERATION: 21
ENERGY: -296.887334501 ITERATION: 21
ENERGY: -296.887618667 ITERATION: 22
ENERGY: -296.887457791 ITERATION: 22
ENERGY: -296.887647528 ITERATION: 23
ENERGY: -296.887530979 ITERATION: 23
ENERGY: -296.887665993 ITERATION: 24
ENERGY: -296.887582836 ITERATION: 24
ENERGY: -296.887677911 ITERATION: 25
ENERGY: -296.8876162 ITERATION: 25
ENERGY: -296.887685645 ITERATION: 26
ENERGY: -296.887640025 ITERATION: 26
ENERGY: -296.887690675 ITERATION: 27
ENERGY: -296.887656259 ITERATION: 27
ENERGY: -296.887693946 ITERATION: 28
ENERGY: -296.887667984 ITERATION: 28
ENERGY: -296.887696068 ITERATION: 29
ENERGY: -296.887676284 ITERATION: 29
ENERGY: -296.887697438 ITERATION: 30
ENERGY: -296.887682349 ITERATION: 30
ENERGY: -296.887698316 ITERATION: 31
ENERGY: -296.887686749 ITERATION: 31
ENERGY: -296.887698872 ITERATION: 32
ENERGY: -296.887689998 ITERATION: 32
ENERGY: -296.88769922 ITERATION: 33
ENERGY: -296.887692395 ITERATION: 33
ENERGY: -296.887699432 ITERATION: 34
ENERGY: -296.887694179 ITERATION: 34
ENERGY: -296.887699559 ITERATION: 35
ENERGY: -296.88769551 ITERATION: 35
ENERGY: -296.887699631 ITERATION: 36
ENERGY: -296.887696508 ITERATION: 36
ENERGY: -296.887699669 ITERATION: 37
ENERGY: -296.887697258 ITERATION: 37
ENERGY: -296.887699686 ITERATION: 38
ENERGY: -296.887697824 ITERATION: 38
ENERGY: -296.887699691 ITERATION: 39
ENERGY: -296.887698252 ITERATION: 39
ENERGY: -296.887699689 ITERATION: 40
ENERGY: -296.887698577 ITERATION: 40
ENERGY: -296.887699683 ITERATION: 41
ENERGY: -296.887698823 ITERATION: 41
ENERGY: -296.887699676 ITERATION: 42
ENERGY: -296.887699011 ITERATION: 42
ENERGY: -296.887699669 ITERATION: 43
ENERGY: -296.887699154 ITERATION: 43
ENERGY: -296.887699662 ITERATION: 44
ENERGY: -296.887699263 ITERATION: 44
ENERGY: -296.887699656 ITERATION: 45
ENERGY: -296.887699347 ITERATION: 45
finished calculating
skipped newFCIDUMP
