in init
3
 &FCI NORB= 71,NELEC=14,MS2= 0,

4
  ORBSYM=1,1,1,1,1,1,1,1,1,1,1,1,1,1,1,1,1,1,1,1,1,1,1,1,1,1,1,1,1,1,1,1,1,1,1,1,1,1,1,1,1,1,1,1,1,1,1,1,1,1,1,1,1,1,1,1,1,1,1,1,1,1,1,1,1,1,1,1,1,1,1,

5
  ISYM=0

6
 &END

found the Namelist
NORB= 71
read the namelist
found E_nucc
finished init
NELECd= 15 NELECs= 1 NELECe= 55 NORB= 71
ENERGY: -297.436606634 ITERATION: 1
ENERGY: -286.186433752 ITERATION: 1
ENERGY: -296.67463722 ITERATION: 2
ENERGY: -304.345117838 ITERATION: 2
ENERGY: -298.137561689 ITERATION: 3
ENERGY: -296.196665641 ITERATION: 3
ENERGY: -298.83240159 ITERATION: 4
ENERGY: -299.641143768 ITERATION: 4
ENERGY: -298.942954837 ITERATION: 5
ENERGY: -298.640443502 ITERATION: 5
ENERGY: -298.972098622 ITERATION: 6
ENERGY: -299.068255673 ITERATION: 6
ENERGY: -298.981932031 ITERATION: 7
ENERGY: -298.929031978 ITERATION: 7
ENERGY: -298.987183153 ITERATION: 8
ENERGY: -299.000189083 ITERATION: 8
ENERGY: -298.990125373 ITERATION: 9
ENERGY: -298.979717174 ITERATION: 9
ENERGY: -298.991904602 ITERATION: 10
ENERGY: -298.993183677 ITERATION: 10
ENERGY: -298.993008773 ITERATION: 11
ENERGY: -298.990778735 ITERATION: 11
ENERGY: -298.993703062 ITERATION: 12
ENERGY: -298.993736299 ITERATION: 12
ENERGY: -298.994147569 ITERATION: 13
ENERGY: -298.993748806 ITERATION: 13
ENERGY: -298.994433692 ITERATION: 14
ENERGY: -298.994516358 ITERATION: 14
ENERGY: -298.99462018 ITERATION: 15
ENERGY: -298.994676471 ITERATION: 15
ENERGY: -298.994742405 ITERATION: 16
ENERGY: -298.994900625 ITERATION: 16
ENERGY: -298.994823248 ITERATION: 17
ENERGY: -298.994979158 ITERATION: 17
ENERGY: -298.994877022 ITERATION: 18
ENERGY: -298.995043162 ITERATION: 18
ENERGY: -298.994913036 ITERATION: 19
ENERGY: -298.995066584 ITERATION: 19
ENERGY: -298.994937274 ITERATION: 20
ENERGY: -298.995078395 ITERATION: 20
ENERGY: -298.994953667 ITERATION: 21
ENERGY: -298.995078142 ITERATION: 21
ENERGY: -298.994964793 ITERATION: 22
ENERGY: -298.995073335 ITERATION: 22
ENERGY: -298.994972368 ITERATION: 23
ENERGY: -298.99506543 ITERATION: 23
ENERGY: -298.994977534 ITERATION: 24
ENERGY: -298.995056632 ITERATION: 24
ENERGY: -298.994981062 ITERATION: 25
ENERGY: -298.995047701 ITERATION: 25
ENERGY: -298.99498347 ITERATION: 26
ENERGY: -298.995039278 ITERATION: 26
ENERGY: -298.994985112 ITERATION: 27
ENERGY: -298.9950316 ITERATION: 27
ENERGY: -298.994986227 ITERATION: 28
ENERGY: -298.995024795 ITERATION: 28
ENERGY: -298.994986982 ITERATION: 29
ENERGY: -298.995018865 ITERATION: 29
ENERGY: -298.99498749 ITERATION: 30
ENERGY: -298.995013771 ITERATION: 30
ENERGY: -298.994987827 ITERATION: 31
ENERGY: -298.995009437 ITERATION: 31
ENERGY: -298.994988049 ITERATION: 32
ENERGY: -298.995005781 ITERATION: 32
ENERGY: -298.994988191 ITERATION: 33
ENERGY: -298.995002716 ITERATION: 33
ENERGY: -298.99498828 ITERATION: 34
ENERGY: -298.995000159 ITERATION: 34
ENERGY: -298.994988334 ITERATION: 35
ENERGY: -298.994998036 ITERATION: 35
ENERGY: -298.994988364 ITERATION: 36
ENERGY: -298.994996278 ITERATION: 36
ENERGY: -298.994988378 ITERATION: 37
ENERGY: -298.994994828 ITERATION: 37
ENERGY: -298.994988383 ITERATION: 38
ENERGY: -298.994993635 ITERATION: 38
ENERGY: -298.994988382 ITERATION: 39
ENERGY: -298.994992654 ITERATION: 39
ENERGY: -298.994988377 ITERATION: 40
ENERGY: -298.994991851 ITERATION: 40
ENERGY: -298.99498837 ITERATION: 41
ENERGY: -298.994991193 ITERATION: 41
ENERGY: -298.994988363 ITERATION: 42
ENERGY: -298.994990655 ITERATION: 42
ENERGY: -298.994988356 ITERATION: 43
ENERGY: -298.994990216 ITERATION: 43
ENERGY: -298.994988349 ITERATION: 44
ENERGY: -298.994989858 ITERATION: 44
ENERGY: -298.994988343 ITERATION: 45
ENERGY: -298.994989566 ITERATION: 45
ENERGY: -298.994988337 ITERATION: 46
ENERGY: -298.994989329 ITERATION: 46
ENERGY: -298.994988332 ITERATION: 47
ENERGY: -298.994989136 ITERATION: 47
ENERGY: -298.994988327 ITERATION: 48
ENERGY: -298.994988979 ITERATION: 48
ENERGY: -298.994988324 ITERATION: 49
ENERGY: -298.994988851 ITERATION: 49
ENERGY: -298.99498832 ITERATION: 50
ENERGY: -298.994988748 ITERATION: 50
ENERGY: -298.994988318 ITERATION: 51
ENERGY: -298.994988664 ITERATION: 51
finished calculating
skipped newFCIDUMP
