 &FCI NORB= 13,NELEC=  8,MS2= 0,
  ORBSYM=1,1,1,1,1,1,1,1,1,1,1,1,1,
  ISYM=0,
 /
  0.7709438759918938E+00   1   1   1   1
 -0.3930473689906743E-15   2   1   1   1
  0.1417782579604936E+00   2   1   2   1
  0.6815910447299627E+00   2   2   1   1
  0.4510281037539698E-16   2   2   2   1
  0.6596103755499334E+00   2   2   2   2
  0.3067068204766756E-01   3   1   1   1
  0.2988061187370050E-15   3   1   2   1
  0.6692605910489582E-03   3   1   2   2
  0.1106620132565516E+00   3   1   3   1
  0.3750546480678555E-15   3   2   1   1
  0.7712586572321059E-03   3   2   2   1
 -0.4406861453568672E-15   3   2   2   2
  0.1051242426441945E-14   3   2   3   1
  0.4549130857030703E-01   3   2   3   2
  0.6528879981535674E+00   3   3   1   1
  0.1169203622808368E-14   3   3   2   1
  0.6067260699704954E+00   3   3   2   2
 -0.8209841496478934E-01   3   3   3   1
 -0.3261280134836397E-15   3   3   3   2
  0.7307696079068488E+00   3   3   3   3
 -0.6896096880639084E-16   4   1   1   1
  0.5109271955294044E-18   4   1   2   1
 -0.6718471567657712E-16   4   1   2   2
 -0.4507754139968855E-16   4   1   3   1
 -0.5576323770987021E-16   4   1   3   2
 -0.2833950360787222E-16   4   1   3   3
  0.1218801914348882E+00   4   1   4   1
  0.1320345751884638E-15   4   2   1   1
  0.5510993157946993E-17   4   2   2   1
  0.1187916788750434E-15   4   2   2   2
 -0.7159687825900399E-16   4   2   3   1
  0.1939524831833463E-16   4   2   3   2
  0.1520887635473871E-15   4   2   3   3
  0.5696837042469378E-15   4   2   4   1
  0.2952801940800110E-01   4   2   4   2
 -0.1838329479039004E-15   4   3   1   1
 -0.5544320760984473E-16   4   3   2   1
 -0.1166508089509738E-15   4   3   2   2
  0.6202354245496532E-16   4   3   3   1
  0.1303170149256704E-16   4   3   3   2
 -0.1894346461783292E-15   4   3   3   3
 -0.4487065299219196E-01   4   3   4   1
 -0.2750366483937172E-15   4   3   4   2
  0.5173675251236580E-01   4   3   4   3
  0.7038564872893063E+00   4   4   1   1
  0.7962380754733545E-15   4   4   2   1
  0.6234871216825928E+00   4   4   2   2
 -0.5393026638457606E-01   4   4   3   1
 -0.4198030811863873E-15   4   4   3   2
  0.6603595876937159E+00   4   4   3   3
 -0.2533910679682615E-15   4   4   4   1
  0.2001170381617389E-15   4   4   4   2
 -0.1507350387763118E-15   4   4   4   3
  0.7591696670500799E+00   4   4   4   4
 -0.1108792791283622E+00   5   1   1   1
  0.1015246914315426E-14   5   1   2   1
 -0.7764122475343313E-01   5   1   2   2
 -0.1172060391274901E-01   5   1   3   1
 -0.7741203511546502E-15   5   1   3   2
 -0.6414264427335889E-01   5   1   3   3
 -0.1491460234831182E-15   5   1   4   1
 -0.4662167922207616E-16   5   1   4   2
  0.1355760283702560E-15   5   1   4   3
 -0.9427342276785017E-01   5   1   4   4
  0.3804082151495705E-01   5   1   5   1
  0.3635558208590662E-14   5   2   1   1
 -0.1499231668786182E-02   5   2   2   1
  0.3055852159463785E-14   5   2   2   2
 -0.1563643149422173E-14   5   2   3   1
  0.5521111681817520E-02   5   2   3   2
  0.4153229270825837E-14   5   2   3   3
 -0.3771340534590556E-16   5   2   4   1
 -0.1306999651789036E-16   5   2   4   2
  0.2070022966399174E-17   5   2   4   3
  0.4160766653825981E-14   5   2   4   4
 -0.1474081273711292E-14   5   2   5   1
  0.1691039431574225E-01   5   2   5   2
 -0.4969956857092336E-01   5   3   1   1
 -0.1617575431239748E-14   5   3   2   1
 -0.3469145415273158E-01   5   3   2   2
  0.1836422134598798E-01   5   3   3   1
  0.6326319676452918E-15   5   3   3   2
 -0.6112615072116288E-01   5   3   3   3
  0.1287669228519099E-15   5   3   4   1
 -0.3207512792412658E-16   5   3   4   2
 -0.4120688557716426E-16   5   3   4   3
 -0.5453197176954125E-01   5   3   4   4
  0.1847632875545950E-01   5   3   5   1
 -0.1205849656238378E-14   5   3   5   2
  0.2238951456039035E-01   5   3   5   3
 -0.5120938372378128E-15   5   4   1   1
 -0.1278743491225594E-16   5   4   2   1
 -0.4066646897048878E-15   5   4   2   2
  0.1602526611181442E-15   5   4   3   1
  0.2570441629830414E-17   5   4   3   2
 -0.5128495856166631E-15   5   4   3   3
 -0.1797421895325255E-01   5   4   4   1
  0.3305648916268528E-15   5   4   4   2
 -0.2696732694936772E-03   5   4   4   3
 -0.6102484168189300E-15   5   4   4   4
  0.1513403302572695E-15   5   4   5   1
  0.6109217218220957E-17   5   4   5   2
  0.9999479983437187E-16   5   4   5   3
  0.1048084449348585E-01   5   4   5   4
  0.3777827887231949E+00   5   5   1   1
 -0.3375771884250867E-14   5   5   2   1
  0.3585034993537664E+00   5   5   2   2
  0.3214193339046084E-01   5   5   3   1
 -0.7858297346174936E-15   5   5   3   2
  0.3378313815039946E+00   5   5   3   3
  0.6419072844772549E-16   5   5   4   1
  0.1706699822492654E-16   5   5   4   2
 -0.5252371125793916E-17   5   5   4   3
  0.3441352024899302E+00   5   5   4   4
 -0.1626245655451741E-01   5   5   5   1
 -0.1658395643033828E-14   5   5   5   2
  0.6875320295888859E-02   5   5   5   3
 -0.6083558884140721E-16   5   5   5   4
  0.3162399781173266E+00   5   5   5   5
 -0.4475618998366313E-14   6   1   1   1
 -0.3097187852733594E-01   6   1   2   1
 -0.3775956857011998E-14   6   1   2   2
 -0.9164007104696913E-15   6   1   3   1
  0.1665743524214183E-01   6   1   3   2
 -0.2425847997937636E-14   6   1   3   3
 -0.9007804698897087E-16   6   1   4   1
  0.2745784091125200E-16   6   1   4   2
  0.3111421859640458E-16   6   1   4   3
 -0.3938220247999278E-14   6   1   4   4
  0.8052267891096171E-15   6   1   5   1
  0.1064814346981204E-01   6   1   5   2
  0.1138832409451618E-14   6   1   5   3
  0.2408730352491887E-16   6   1   5   4
 -0.8790697779809314E-15   6   1   5   5
  0.1750062393046152E-01   6   1   6   1
 -0.1109826255511631E+00   6   2   1   1
 -0.1273937552670468E-14   6   2   2   1
 -0.1022838903402789E+00   6   2   2   2
  0.3693745727313515E-01   6   2   3   1
  0.3645087703896266E-15   6   2   3   2
 -0.1133438584440893E+00   6   2   3   3
  0.6518499774594604E-16   6   2   4   1
 -0.9429066461599297E-16   6   2   4   2
  0.6527897071011887E-16   6   2   4   3
 -0.1215486963361943E+00   6   2   4   4
  0.3149156726048087E-01   6   2   5   1
 -0.1556046957951196E-14   6   2   5   2
  0.2603308462051759E-01   6   2   5   3
  0.1893896675926544E-15   6   2   5   4
 -0.5059924090984867E-02   6   2   5   5
  0.1737325561190772E-14   6   2   6   1
  0.5588099006102648E-01   6   2   6   2
 -0.3319216871827241E-14   6   3   1   1
  0.3536585402723172E-01   6   3   2   1
 -0.2401212382166672E-14   6   3   2   2
  0.1221489272576481E-14   6   3   3   1
 -0.9435745768513871E-02   6   3   3   2
 -0.3545609625269240E-14   6   3   3   3
  0.1524672974846833E-16   6   3   4   1
  0.1784779306026689E-16   6   3   4   2
 -0.4034089828409758E-16   6   3   4   3
 -0.3374763193791969E-14   6   3   4   4
  0.1261360807469636E-14   6   3   5   1
  0.8593893777738469E-02   6   3   5   2
  0.4369334755116583E-15   6   3   5   3
 -0.7969872560287656E-18   6   3   5   4
 -0.1300430235632555E-14   6   3   5   5
 -0.5782626672778201E-02   6   3   6   1
  0.1456300358082530E-14   6   3   6   2
  0.1865361762756477E-01   6   3   6   3
 -0.3870000330176959E-15   6   4   1   1
  0.9299145741666826E-16   6   4   2   1
 -0.3278204485443625E-15   6   4   2   2
  0.4257288811004797E-16   6   4   3   1
  0.2496069042998709E-16   6   4   3   2
 -0.3451249818870866E-15   6   4   3   3
 -0.5426941887479203E-15   6   4   4   1
 -0.1103100515617849E-01   6   4   4   2
 -0.1384901332545099E-15   6   4   4   3
 -0.4226301042019328E-15   6   4   4   4
  0.9245079709199466E-16   6   4   5   1
  0.5478047644440680E-16   6   4   5   2
  0.4824251523714630E-16   6   4   5   3
  0.1916380318741492E-15   6   4   5   4
 -0.7832367933611241E-16   6   4   5   5
  0.2420236740011889E-17   6   4   6   1
  0.1234962645455179E-15   6   4   6   2
  0.4110685380248587E-16   6   4   6   3
  0.5964410761222404E-02   6   4   6   4
  0.1216797902962188E-14   6   5   1   1
  0.4376101023137471E-01   6   5   2   1
  0.1556113139187842E-15   6   5   2   2
  0.1401277097828890E-14   6   5   3   1
  0.1464086518678946E-01   6   5   3   2
  0.8056196093526927E-15   6   5   3   3
  0.1758862972043620E-16   6   5   4   1
  0.6074666038824544E-16   6   5   4   2
 -0.2131551123353055E-16   6   5   4   3
  0.8310148711197717E-15   6   5   4   4
 -0.4610027637408365E-15   6   5   5   1
  0.2132697328186578E-01   6   5   5   2
 -0.7103692634125025E-15   6   5   5   3
  0.1341701586346890E-16   6   5   5   4
 -0.4071063045904159E-14   6   5   5   5
  0.4699823163330889E-02   6   5   6   1
  0.3538835890992686E-15   6   5   6   2
  0.2092094667583676E-01   6   5   6   3
  0.1074722936181971E-15   6   5   6   4
  0.6659292106972446E-01   6   5   6   5
  0.3542942581901158E+00   6   6   1   1
  0.3049643870767227E-14   6   6   2   1
  0.3547061135212120E+00   6   6   2   2
  0.1263168978045288E-01   6   6   3   1
  0.1349614864309956E-14   6   6   3   2
  0.3309163379851964E+00   6   6   3   3
  0.7741097612913781E-17   6   6   4   1
  0.4597156664321723E-16   6   6   4   2
 -0.2114216108269581E-17   6   6   4   3
  0.3299216206435088E+00   6   6   4   4
 -0.1118677285114952E-01   6   6   5   1
  0.1526556658859590E-14   6   6   5   2
  0.7310389430078029E-02   6   6   5   3
 -0.3223838321483953E-16   6   6   5   4
  0.3005287124827700E+00   6   6   5   5
  0.1249000902703301E-15   6   6   6   1
 -0.6907257234124303E-02   6   6   6   2
  0.1346145417358002E-14   6   6   6   3
 -0.7663454067410077E-16   6   6   6   4
  0.3608224830031759E-14   6   6   6   5
  0.3101598907438593E+00   6   6   6   6
  0.1626117578418560E-14   7   1   1   1
  0.2046387900005452E-01   7   1   2   1
  0.3727300773382457E-15   7   1   2   2
 -0.3553879196135923E-15   7   1   3   1
  0.3327996034013964E-01   7   1   3   2
  0.2300740447480914E-14   7   1   3   3
 -0.2219818417666301E-15   7   1   4   1
  0.4125000059089697E-16   7   1   4   2
  0.4846738156873287E-16   7   1   4   3
  0.2477300270189959E-14   7   1   4   4
 -0.9840218917478438E-15   7   1   5   1
  0.5706953923947135E-02   7   1   5   2
 -0.3968179951296946E-15   7   1   5   3
  0.7741812982932881E-16   7   1   5   4
 -0.8351676557209424E-15   7   1   5   5
  0.1001881382763465E-01   7   1   6   1
 -0.7979727989493313E-15   7   1   6   2
  0.1721600716624447E-02   7   1   6   3
  0.2138844275704585E-16   7   1   6   4
  0.1397671639591076E-01   7   1   6   5
  0.1075102023183646E-14   7   1   6   6
  0.3554566790710687E-01   7   1   7   1
  0.3580897121809441E-01   7   2   1   1
 -0.2027024381678899E-14   7   2   2   1
  0.2414796383348659E-01   7   2   2   2
  0.6822806412078405E-01   7   2   3   1
 -0.1964574336543734E-15   7   2   3   2
 -0.1335333593039727E-01   7   2   3   3
  0.6807364625315369E-16   7   2   4   1
 -0.9405675760033626E-16   7   2   4   2
  0.3593413676895774E-16   7   2   4   3
 -0.1870395010669753E-01   7   2   4   4
  0.1363271095809915E-02   7   2   5   1
 -0.1785030456780135E-14   7   2   5   2
  0.1838399861990488E-01   7   2   5   3
  0.8861929490324737E-16   7   2   5   4
  0.3142327139801321E-01   7   2   5   5
 -0.2914335439641036E-15   7   2   6   1
  0.3100299013254227E-01   7   2   6   2
  0.3989863994746656E-15   7   2   6   3
  0.4123853087313450E-16   7   2   6   4
 -0.1873501354054952E-15   7   2   6   5
  0.2057983437638119E-01   7   2   6   6
 -0.1713039432527097E-14   7   2   7   1
  0.7265877988340522E-01   7   2   7   2
 -0.1269596488607108E-14   7   3   1   1
  0.6755093656196196E-01   7   3   2   1
 -0.1483291763542206E-14   7   3   2   2
  0.1399677899624474E-14   7   3   3   1
  0.5266162529855647E-02   7   3   3   2
 -0.1246029668446907E-14   7   3   3   3
  0.2805684062858659E-16   7   3   4   1
  0.2983547777674658E-16   7   3   4   2
 -0.8905656438297389E-16   7   3   4   3
 -0.1541801260205885E-14   7   3   4   4
  0.4115631446754975E-15   7   3   5   1
  0.1068093799088086E-01   7   3   5   2
 -0.6700369425960417E-15   7   3   5   3
 -0.1172421040683744E-16   7   3   5   4
 -0.1998822953364677E-14   7   3   5   5
 -0.6800272491794601E-02   7   3   6   1
  0.4406197628981090E-15   7   3   6   2
  0.2438604308937329E-01   7   3   6   3
  0.5717779648999956E-16   7   3   6   4
  0.2667444077397202E-01   7   3   6   5
  0.1586099459463686E-14   7   3   6   6
  0.2102856731569739E-01   7   3   7   1
 -0.8795048023202412E-15   7   3   7   2
  0.5062173188678088E-01   7   3   7   3
 -0.9649146855772439E-15   7   4   1   1
  0.5656761033541609E-16   7   4   2   1
 -0.7808436213103232E-15   7   4   2   2
  0.5989160764650058E-16   7   4   3   1
  0.2509170124490839E-16   7   4   3   2
 -0.8106307466045089E-15   7   4   3   3
  0.1379156161442057E-14   7   4   4   1
 -0.8638923736615869E-02   7   4   4   2
 -0.5577764505987003E-15   7   4   4   3
 -0.9809223863750953E-15   7   4   4   4
  0.2589119574614741E-15   7   4   5   1
  0.1912868028796131E-16   7   4   5   2
  0.1024429565310035E-15   7   4   5   3
 -0.3279115575859308E-15   7   4   5   4
 -0.2084648483623373E-15   7   4   5   5
 -0.9754222747721050E-18   7   4   6   1
  0.2694727845039370E-15   7   4   6   2
  0.1553936515304981E-16   7   4   6   3
  0.3695180130936944E-02   7   4   6   4
  0.8283953250185063E-17   7   4   6   5
 -0.2283811799952738E-15   7   4   6   6
  0.3246972902384136E-16   7   4   7   1
 -0.2394885587902004E-16   7   4   7   2
  0.4113996891603253E-16   7   4   7   3
  0.6479548909013118E-02   7   4   7   4
 -0.3921828427978786E-14   7   5   1   1
 -0.6121666104071228E-02   7   5   2   1
 -0.3939515112076862E-14   7   5   2   2
  0.1979304239496486E-15   7   5   3   1
  0.8424782211009264E-02   7   5   3   2
 -0.3760895041337514E-14   7   5   3   3
  0.2109214094419956E-15   7   5   4   1
  0.1703355639105374E-16   7   5   4   2
 -0.6304212601710325E-16   7   5   4   3
 -0.3595796672729289E-14   7   5   4   4
  0.3134699531198715E-15   7   5   5   1
 -0.2326274282800234E-02   7   5   5   2
  0.6394895463862627E-15   7   5   5   3
  0.5485944425273915E-17   7   5   5   4
  0.1887945056751910E-15   7   5   5   5
  0.3910280067722975E-02   7   5   6   1
  0.8754932542820448E-15   7   5   6   2
 -0.2579053605475040E-02   7   5   6   3
 -0.1995931367757314E-16   7   5   6   4
 -0.8412552117168248E-02   7   5   6   5
 -0.1283295287694644E-14   7   5   6   6
  0.1017285273659175E-01   7   5   7   1
 -0.3886593737817412E-15   7   5   7   2
 -0.1940715420371899E-02   7   5   7   3
  0.9384031584127715E-17   7   5   7   4
  0.1513437541257186E-01   7   5   7   5
  0.7233304890745987E-01   7   6   1   1
 -0.8185726402265558E-15   7   6   2   1
  0.7066075752572164E-01   7   6   2   2
 -0.1895304127447474E-02   7   6   3   1
  0.2732189474663471E-16   7   6   3   2
  0.7325061910345995E-01   7   6   3   3
 -0.6584150034401761E-17   7   6   4   1
  0.5032092025721423E-16   7   6   4   2
 -0.3346170939322304E-17   7   6   4   3
  0.6420090570777567E-01   7   6   4   4
 -0.6978180564683700E-02   7   6   5   1
  0.4510281037539698E-15   7   6   5   2
 -0.3640614513615796E-02   7   6   5   3
 -0.6032022479791296E-16   7   6   5   4
  0.2393521973779244E-01   7   6   5   5
 -0.1890848588814720E-15   7   6   6   1
 -0.1403076990738262E-01   7   6   6   2
 -0.4284766985662714E-15   7   6   6   3
 -0.6045279077354391E-16   7   6   6   4
 -0.3469446951953614E-16   7   6   6   5
  0.1902035178754940E-01   7   6   6   6
 -0.7372574772901430E-16   7   6   7   1
  0.1016890757595644E-01   7   6   7   2
 -0.7140555507989532E-15   7   6   7   3
 -0.1170010174405813E-15   7   6   7   4
 -0.5169475958410885E-15   7   6   7   5
  0.1993785221220380E-01   7   6   7   6
  0.4866373375735928E+00   7   7   1   1
 -0.3216177324461000E-14   7   7   2   1
  0.4787224492145327E+00   7   7   2   2
  0.3926529039219825E-01   7   7   3   1
 -0.9783840404509192E-15   7   7   3   2
  0.4449702050369995E+00   7   7   3   3
  0.1932071842458053E-16   7   7   4   1
 -0.5468791166789723E-16   7   7   4   2
 -0.4599193730619500E-17   7   7   4   3
  0.4255399936003831E+00   7   7   4   4
 -0.2271497673309622E-01   7   7   5   1
 -0.1249000902703301E-15   7   7   5   2
 -0.5748656284561310E-02   7   7   5   3
 -0.1488061767458577E-15   7   7   5   4
  0.3249017410875962E+00   7   7   5   5
 -0.1817990202823694E-14   7   7   6   1
 -0.2267675973716710E-01   7   7   6   2
 -0.1471045507628332E-14   7   7   6   3
 -0.1353816401360907E-15   7   7   6   4
 -0.5551115123125783E-15   7   7   6   5
  0.3134139055889714E+00   7   7   6   6
 -0.2067790383364354E-14   7   7   7   1
  0.6172989126348666E-01   7   7   7   2
 -0.2357489203852481E-14   7   7   7   3
 -0.2336701462487488E-15   7   7   7   4
 -0.3615163723935666E-14   7   7   7   5
  0.5328959282674450E-01   7   7   7   6
  0.4580669301049318E+00   7   7   7   7
  0.1145479393769727E-15   8   1   1   1
 -0.9655879751721256E-16   8   1   2   1
  0.6078210485055504E-16   8   1   2   2
  0.1457566915073488E-15   8   1   3   1
 -0.1361172080988592E-15   8   1   3   2
 -0.5689013687923745E-16   8   1   3   3
 -0.4128479478571847E-01   8   1   4   1
 -0.2573767704060014E-15   8   1   4   2
  0.1705153342466544E-01   8   1   4   3
  0.8713166316789104E-16   8   1   4   4
 -0.1291662676976594E-16   8   1   5   1
  0.2876190550604517E-17   8   1   5   2
 -0.7820841686577552E-16   8   1   5   3
  0.1516688928919654E-01   8   1   5   4
 -0.3000138411776836E-16   8   1   5   5
  0.8327814371362461E-17   8   1   6   1
 -0.2015810025933142E-16   8   1   6   2
 -0.1218200554968493E-16   8   1   6   3
  0.5508535897911071E-15   8   1   6   4
 -0.5987645087618849E-16   8   1   6   5
 -0.8157851064327194E-17   8   1   6   6
 -0.1802372197521489E-17   8   1   7   1
  0.1992065652168196E-16   8   1   7   2
 -0.1151122759874966E-15   8   1   7   3
 -0.4675129698916770E-15   8   1   7   4
 -0.8174851982852806E-16   8   1   7   5
  0.1127611790660111E-17   8   1   7   6
  0.3907214593831782E-16   8   1   7   7
  0.3164406143674901E-01   8   1   8   1
 -0.3817963804457232E-15   8   2   1   1
  0.2682849039594601E-16   8   2   2   1
 -0.2771965973476797E-15   8   2   2   2
 -0.2878870429263034E-15   8   2   3   1
  0.4260505664360500E-16   8   2   3   2
 -0.1222575056797730E-15   8   2   3   3
 -0.3728671314368656E-15   8   2   4   1
 -0.7534001260404683E-02   8   2   4   2
  0.1738443211022650E-15   8   2   4   3
 -0.1663341857974415E-15   8   2   4   4
  0.6901189473102196E-16   8   2   5   1
  0.2035332750235887E-17   8   2   5   2
 -0.5868907931175479E-16   8   2   5   3
 -0.1435691304071387E-15   8   2   5   4
 -0.1945229996952656E-15   8   2   5   5
 -0.4419023879714873E-17   8   2   6   1
 -0.4800706750266090E-16   8   2   6   2
 -0.1790088896956465E-16   8   2   6   3
  0.6112994122769655E-02   8   2   6   4
 -0.3891772911311017E-17   8   2   6   5
 -0.1536658441271146E-15   8   2   6   6
  0.1268633828026082E-16   8   2   7   1
 -0.2672051387122706E-15   8   2   7   2
  0.1478733502855428E-16   8   2   7   3
  0.4767754726242497E-03   8   2   7   4
 -0.1537695715816636E-16   8   2   7   5
 -0.7553064527345848E-16   8   2   7   6
 -0.3291594883313129E-15   8   2   7   7
  0.1897501438102838E-15   8   2   8   1
  0.1150463615759307E-01   8   2   8   2
  0.7342842265713815E-15   8   3   1   1
 -0.3156477532106165E-15   8   3   2   1
  0.6040316375092922E-15   8   3   2   2
 -0.1339283656499731E-15   8   3   3   1
 -0.2897326732200405E-16   8   3   3   2
  0.7572916420268298E-15   8   3   3   3
  0.1918125504985567E-01   8   3   4   1
  0.1388724181790868E-15   8   3   4   2
 -0.1699812935279093E-01   8   3   4   3
  0.7249360126032649E-15   8   3   4   4
 -0.2196453861744702E-15   8   3   5   1
 -0.6201992768835024E-16   8   3   5   2
 -0.7545193323714422E-16   8   3   5   3
 -0.1851245787666902E-02   8   3   5   4
  0.1506532799179450E-15   8   3   5   5
  0.1667591548029782E-16   8   3   6   1
 -0.2252896537450917E-15   8   3   6   2
 -0.1001532961386619E-15   8   3   6   3
  0.4311712245553193E-16   8   3   6   4
 -0.1383611253519413E-15   8   3   6   5
  0.1667522710120854E-15   8   3   6   6
 -0.1353786954987318E-15   8   3   7   1
 -0.2820482864903832E-16   8   3   7   2
 -0.1707484355315301E-15   8   3   7   3
  0.3068655182102716E-15   8   3   7   4
  0.3593985624920970E-16   8   3   7   5
  0.7058155403736011E-16   8   3   7   6
  0.1854524548905893E-15   8   3   7   7
 -0.1100052514147028E-01   8   3   8   1
 -0.9776591254213129E-16   8   3   8   2
  0.1727822788572712E-01   8   3   8   3
 -0.1858585857396838E+00   8   4   1   1
 -0.4848552115355176E-15   8   4   2   1
 -0.1480983362381979E+00   8   4   2   2
  0.2783741922170218E-01   8   4   3   1
  0.2723515857283587E-15   8   4   3   2
 -0.1669018783085142E+00   8   4   3   3
  0.9794026817497113E-16   8   4   4   1
 -0.8308425527378819E-16   8   4   4   2
  0.1305397757108246E-15   8   4   4   3
 -0.2059038387029841E+00   8   4   4   4
  0.5143865488813012E-01   8   4   5   1
 -0.2024422296464934E-14   8   4   5   2
  0.2504756419773615E-01   8   4   5   3
  0.2604529176697760E-15   8   4   5   4
 -0.3503593270162592E-01   8   4   5   5
  0.2053912595556540E-14   8   4   6   1
  0.5891253996667295E-01   8   4   6   2
  0.1682681771697503E-14   8   4   6   3
  0.2125826455224794E-15   8   4   6   4
 -0.7632783294297951E-16   8   4   6   5
 -0.3820298531661961E-01   8   4   6   6
 -0.1179178282795235E-14   8   4   7   1
  0.1136472991945617E-01   8   4   7   2
  0.8769027171062760E-15   8   4   7   3
  0.6626931119797584E-15   8   4   7   4
  0.1243796732275371E-14   8   4   7   5
 -0.2023184334781797E-01   8   4   7   6
 -0.4531861287704747E-01   8   4   7   7
 -0.2223439496767703E-16   8   4   8   1
  0.1497581412281567E-15   8   4   8   2
 -0.5127285512784642E-15   8   4   8   3
  0.1398598377937527E+00   8   4   8   4
 -0.3718967162737517E-16   8   5   1   1
  0.7584008765270159E-16   8   5   2   1
 -0.9317395312557416E-17   8   5   2   2
 -0.1909407011721068E-15   8   5   3   1
 -0.6937528932612659E-16   8   5   3   2
  0.1070376771405758E-15   8   5   3   3
  0.3938107551058341E-01   8   5   4   1
 -0.1562830491644366E-15   8   5   4   2
 -0.9969148602780593E-02   8   5   4   3
  0.8118338547825965E-16   8   5   4   4
 -0.7008633518358661E-16   8   5   5   1
 -0.1879574356536577E-16   8   5   5   2
 -0.3325598568051629E-16   8   5   5   3
  0.1360631600373738E-02   8   5   5   4
 -0.1127779487444942E-15   8   5   5   5
 -0.6138498177944612E-16   8   5   6   1
 -0.6962745071127375E-16   8   5   6   2
  0.1263012605913468E-16   8   5   6   3
  0.1397593803813249E-15   8   5   6   4
  0.1209504375360879E-16   8   5   6   5
 -0.6482287913339326E-16   8   5   6   6
 -0.8061531477530151E-16   8   5   7   1
 -0.1023232350401844E-15   8   5   7   2
  0.2206173530488619E-16   8   5   7   3
  0.5288049739940340E-15   8   5   7   4
  0.6968443147088250E-16   8   5   7   5
  0.1443374636916576E-17   8   5   7   6
 -0.5066797468526181E-16   8   5   7   7
 -0.4320017776664097E-02   8   5   8   1
 -0.2065946841693040E-16   8   5   8   2
  0.1865322267751160E-02   8   5   8   3
 -0.4862285234952135E-16   8   5   8   4
  0.2763376589514260E-01   8   5   8   5
  0.1204290265444415E-15   8   6   1   1
 -0.1763311523943016E-16   8   6   2   1
  0.5821635313507646E-16   8   6   2   2
 -0.5992728118410926E-16   8   6   3   1
 -0.3125726030283922E-16   8   6   3   2
  0.7606793328300634E-16   8   6   3   3
  0.1496093552645834E-14   8   6   4   1
  0.8843303372316117E-02   8   6   4   2
 -0.1980060492166165E-15   8   6   4   3
  0.2190442120061117E-15   8   6   4   4
 -0.7955673420951461E-16   8   6   5   1
 -0.1864846185501244E-16   8   6   5   2
 -0.6026194944502971E-16   8   6   5   3
  0.1010814919647285E-15   8   6   5   4
 -0.5087149443434364E-16   8   6   5   5
 -0.5555844006743452E-17   8   6   6   1
 -0.9650011829316035E-16   8   6   6   2
  0.1854056628384775E-17   8   6   6   3
 -0.1905564635005453E-02   8   6   6   4
 -0.1509898087069379E-16   8   6   6   5
 -0.4532015452359292E-16   8   6   6   6
 -0.1023211986056321E-16   8   6   7   1
 -0.9479702914628785E-16   8   6   7   2
 -0.1321837935020854E-16   8   6   7   3
 -0.2186989390573529E-02   8   6   7   4
  0.3517880611562555E-17   8   6   7   5
 -0.4218301321707957E-17   8   6   7   6
 -0.1101299665615488E-15   8   6   7   7
 -0.1434155330041310E-15   8   6   8   1
 -0.1659301619611489E-02   8   6   8   2
  0.7807898518668210E-16   8   6   8   3
 -0.1296231340986314E-15   8   6   8   4
  0.8651276775701037E-15   8   6   8   5
  0.5831708105072977E-02   8   6   8   6
  0.3344065896783953E-15   8   7   1   1
 -0.2645107233301251E-16   8   7   2   1
  0.1129006868423671E-15   8   7   2   2
 -0.2845929259546783E-15   8   7   3   1
  0.2639855461704939E-16   8   7   3   2
  0.3466621490749909E-15   8   7   3   3
 -0.4226185988213849E-15   8   7   4   1
 -0.2154211250709180E-02   8   7   4   2
  0.3415695621368972E-15   8   7   4   3
  0.7879236497056497E-15   8   7   4   4
 -0.1854544364828429E-15   8   7   5   1
 -0.2279201130786121E-16   8   7   5   2
 -0.1245395856550336E-15   8   7   5   3
  0.1895299294802985E-15   8   7   5   4
 -0.1120915774804096E-16   8   7   5   5
  0.5729960263379709E-17   8   7   6   1
 -0.2509767509708420E-15   8   7   6   2
 -0.2409240142961355E-16   8   7   6   3
 -0.5030358566120656E-03   8   7   6   4
 -0.3112208129849263E-16   8   7   6   5
 -0.4031049937627775E-16   8   7   6   6
  0.2807628286582487E-16   8   7   7   1
 -0.3111283381820934E-15   8   7   7   2
 -0.4103379618893912E-16   8   7   7   3
  0.4786833047941629E-02   8   7   7   4
  0.3304113428175033E-16   8   7   7   5
 -0.4576041313150934E-16   8   7   7   6
 -0.3242847456382158E-15   8   7   7   7
  0.3996110049740967E-15   8   7   8   1
 -0.4801002851114069E-02   8   7   8   2
 -0.1237392263423524E-15   8   7   8   3
 -0.4392959588844719E-15   8   7   8   4
  0.9212013698989885E-16   8   7   8   5
 -0.1007270920077554E-02   8   7   8   6
  0.8028230257795650E-02   8   7   8   7
  0.5430010313618634E+00   8   8   1   1
  0.5169475958410885E-15   8   8   2   1
  0.4951489014941042E+00   8   8   2   2
 -0.3324895344381490E-01   8   8   3   1
 -0.2515349040166370E-15   8   8   3   2
  0.5181803208790093E+00   8   8   3   3
 -0.1632711769705695E-16   8   8   4   1
  0.2235537223218208E-15   8   8   4   2
 -0.3482886543690919E-15   8   8   4   3
  0.5817420383930015E+00   8   8   4   4
 -0.5802451399030006E-01   8   8   5   1
  0.2650657471292561E-14   8   8   5   2
 -0.3613260671506847E-01   8   8   5   3
 -0.3838434708995432E-15   8   8   5   4
  0.3130214685971002E+00   8   8   5   5
 -0.2414735078559715E-14   8   8   6   1
 -0.7836875514866840E-01   8   8   6   2
 -0.2206568261442499E-14   8   8   6   3
 -0.2912713502067197E-15   8   8   6   4
  0.7216449660063518E-15   8   8   6   5
  0.2964903152956483E+00   8   8   6   6
  0.1641048408274060E-14   8   8   7   1
 -0.1287433541352398E-01   8   8   7   2
 -0.9402201239794294E-15   8   8   7   3
 -0.6662495649806700E-15   8   8   7   4
 -0.2310651670001107E-14   8   8   7   5
  0.4398140415448548E-01   8   8   7   6
  0.3694469987483096E+00   8   8   7   7
 -0.1115098655938495E-16   8   8   8   1
 -0.6285628499036323E-16   8   8   8   2
  0.4999815319067685E-15   8   8   8   3
 -0.1243157789047227E+00   8   8   8   4
  0.5263920736189328E-16   8   8   8   5
  0.2044155535614773E-15   8   8   8   6
  0.5163783363618302E-15   8   8   8   7
  0.4930699940384385E+00   8   8   8   8
 -0.2896542299669688E-01   9   1   1   1
  0.5299580219109146E-15   9   1   2   1
 -0.8895649983103023E-02   9   1   2   2
 -0.2827463023096360E-01   9   1   3   1
 -0.1073089100217528E-14   9   1   3   2
  0.1524900579712744E-01   9   1   3   3
 -0.1705661108919825E-15   9   1   4   1
  0.3228979158157094E-17   9   1   4   2
  0.9559118535424787E-16   9   1   4   3
 -0.3520417066019939E-02   9   1   4   4
  0.1958559352071181E-01   9   1   5   1
 -0.5488231397121623E-15   9   1   5   2
  0.9945187941787576E-02   9   1   5   3
  0.7490933374061267E-16   9   1   5   4
 -0.2398095839316162E-02   9   1   5   5
  0.3692792599485628E-15   9   1   6   1
  0.4233991817684763E-02   9   1   6   2
  0.4703269024242118E-15   9   1   6   3
  0.6791515246821381E-17   9   1   6   4
 -0.5564125549195609E-15   9   1   6   5
  0.4580989680433418E-02   9   1   6   6
 -0.6788189801931743E-15   9   1   7   1
 -0.3768278331617159E-02   9   1   7   2
 -0.5259464738727182E-15   9   1   7   3
  0.2684565576253856E-16   9   1   7   4
 -0.2775557561562891E-16   9   1   7   5
  0.2001867156390954E-02   9   1   7   6
 -0.3013775891993652E-02   9   1   7   7
  0.2829192619331190E-16   9   1   8   1
  0.2264414134098421E-16   9   1   8   2
 -0.3127045234815566E-16   9   1   8   3
  0.4622159363021253E-02   9   1   8   4
 -0.1403649311187309E-16   9   1   8   5
 -0.2373069818959097E-16   9   1   8   6
  0.2541867905562774E-17   9   1   8   7
 -0.3207974183696828E-02   9   1   8   8
  0.2829281832458859E-01   9   1   9   1
  0.3398045491042448E-14   9   2   1   1
  0.3319758907976689E-02   9   2   2   1
  0.3282445779540735E-14   9   2   2   2
 -0.2001730283807991E-14   9   2   3   1
 -0.8623909326832062E-02   9   2   3   2
  0.4151780728101591E-14   9   2   3   3
  0.1393817570331790E-16   9   2   4   1
 -0.3397492274863531E-16   9   2   4   2
 -0.2167937543485492E-16   9   2   4   3
  0.4442877804202625E-14   9   2   4   4
 -0.1090734490574730E-14   9   2   5   1
  0.3684255355027148E-02   9   2   5   2
 -0.1152235858808970E-14   9   2   5   3
  0.1687819225748815E-17   9   2   5   4
 -0.7271683993133614E-16   9   2   5   5
 -0.2617396832187365E-03   9   2   6   1
 -0.1961646990678023E-14   9   2   6   2
  0.7169545938351691E-02   9   2   6   3
  0.3551815695240954E-16   9   2   6   4
  0.2811676663494312E-02   9   2   6   5
  0.6757290280727333E-15   9   2   6   6
 -0.3994021997200503E-03   9   2   7   1
 -0.1624297484709158E-14   9   2   7   2
  0.3284658772195087E-02   9   2   7   3
  0.1017330275179772E-16   9   2   7   4
  0.3686056879852640E-02   9   2   7   5