
 Primary working directories    : /tmp/dama
 Secondary working directories  : /tmp/dama
 Wavefunction directory         : /users/dama/wfu/
 Main file repository           : /tmp/dama/

 SHA1      : 25c4d707dae6017d7eb755d8013c791134847459
 NAME      : 2018.0.25c4d70
 ARCHNAME  : linux/x86_64_openmp
 FC        : /opt/intel/XE2016.U3/compilers_and_libraries_2016.3.210/linux/bin/intel64/ifort
 BLASLIB   : -lmkl_intel_ilp64 -lmkl_intel_thread -lmkl_core
 id        : teomgsmartinchri

 Nodes     nprocs
 bra04        1

 Using customized tuning parameters: mindgm=1; mindgv=20; mindgc=4; mindgr=1; noblas=0; minvec=7
 default implementation of scratch files=df  

 memory,4,m
 basis=dz
 symmetry,nosym
 geometry={
 o
 h,,0.0, 1.1,1.4
 h,,0.0,-1.1,1.4}
 hf
 {mp2}
 {mp3}
 {CCSD,nosing}
 {cepa(0),nosing}
 gprint,basis,orbital=10
 {FCIQMC}

 Variables initialized (918), CPU time= 0.01 sec
 Commands  initialized (754), CPU time= 0.01 sec, 610 directives.
 Default parameters read. Elapsed time= 0.08 sec

 Checking input...
 Passed
1


                                         ***  PROGRAM SYSTEM MOLPRO  ***
                                       Copyright, TTI GmbH Stuttgart, 2015
                                    Version 2018.0 linked Apr  9 2018 14:30:11


 **********************************************************************************************************************************
 LABEL *                                                                                 
  64 bit serial version                                                                  DATE: 20-Jul-18          TIME: 15:43:12  
 **********************************************************************************************************************************

 SHA1:             25c4d707dae6017d7eb755d8013c791134847459
 **********************************************************************************************************************************

 Variable memory set to    4000000 words,  buffer space 

 SETTING BASIS          =    DZ
 ZSYMEL=NOSYM
 


 Recomputing integrals since basis changed


 Using spherical harmonics

 Library entry O      S DZ                   selected for orbital group  1
 Library entry O      P DZ                   selected for orbital group  1
 Library entry H      S DZ                   selected for orbital group  2


 PROGRAM * SEWARD (Integral evaluation for generally contracted gaussian basis sets)     Author: Roland Lindh, 1990

 Geometry written to block  1 of record 700


 Point group  C1  



 ATOMIC COORDINATES

 NR  ATOM    CHARGE       X              Y              Z

   1  O       8.00    0.000000000    0.000000000    0.000000000
   2  H       1.00    0.000000000    1.100000000    1.400000000
   3  H       1.00    0.000000000   -1.100000000    1.400000000

 Bond lengths in Bohr (Angstrom)

 1-2  1.780449381  1-3  1.780449381
     ( 0.942173238)     ( 0.942173238)

 Bond angles

  2-1-3   76.31445317

 NUCLEAR CHARGE:                   10
 NUMBER OF PRIMITIVE AOS:          32
 NUMBER OF SYMMETRY AOS:           32
 NUMBER OF CONTRACTIONS:           14   (  14A   )
 NUMBER OF CORE ORBITALS:           1   (   1A   )
 NUMBER OF VALENCE ORBITALS:        6   (   6A   )


 NUCLEAR REPULSION ENERGY    9.44104076

 EXTRA SYMMETRY OF AOS IN SYMMETRY 1:   1 1 1 1 2 1 1 2 1 1   1 1 1 1

 Eigenvalues of metric

         1 0.575E-01 0.777E-01 0.154E+00 0.251E+00 0.318E+00 0.418E+00 0.494E+00 0.639E+00


 Contracted 2-electron integrals neglected if value below      1.0D-11
 AO integral compression algorithm  1   Integral accuracy      1.0D-11

     0.262 MB (compressed) written to integral file (100.0%)


 NUMBER OF SORTED TWO-ELECTRON INTEGRALS:       5565.     BUFFER LENGTH:  32768
 NUMBER OF SEGMENTS:   1  SEGMENT LENGTH:       5565      RECORD LENGTH: 524288

 Memory used in sort:       0.56 MW

 SORT1 READ        8688. AND WROTE        3009. INTEGRALS IN      1 RECORDS. CPU TIME:     0.00 SEC, REAL TIME:     0.00 SEC
 SORT2 READ        3009. AND WROTE        5565. INTEGRALS IN      1 RECORDS. CPU TIME:     0.01 SEC, REAL TIME:     0.01 SEC

 FILE SIZES:   FILE 1:    30.2 MBYTE,  FILE 4:     4.2 MBYTE,   TOTAL:     34.4 MBYTE

 OPERATOR DM      FOR CENTER  0  COORDINATES:    0.000000    0.000000    0.000000


 **********************************************************************************************************************************
 DATASETS  * FILE   NREC   LENGTH (MB)   RECORD NAMES
              1      19       29.98       500      610      700      900      950      970     1000      129      960     1100   
                                          VAR    BASINP    GEOM    SYMINP    ZMAT    AOBASIS   BASIS     P2S    ABASIS      S 
                                         1400     1410     1200     1210     1080     1600     1650     1300     1700   
                                           T        V       H0       H01     AOSYM     SMH    MOLCAS    ERIS     OPER   

 PROGRAMS   *        TOTAL       INT
 CPU TIMES  *         0.19      0.09
 REAL TIME  *         1.49 SEC
 DISK USED  *        34.71 MB
 **********************************************************************************************************************************


 PROGRAM * RHF-SCF (CLOSED SHELL)       Authors: W. Meyer, H.-J. Werner


 NUMBER OF ELECTRONS:       5+    5-    SPACE SYMMETRY=1    SPIN SYMMETRY: Singlet 
 CONVERGENCE THRESHOLDS:    1.00E-05 (Density)    1.00E-07 (Energy)
 MAX. NUMBER OF ITERATIONS:       60
 INTERPOLATION TYPE:            DIIS
 INTERPOLATION STEPS:              2 (START)      1 (STEP)
 LEVEL SHIFTS:                  0.00 (CLOSED)  0.00 (OPEN) 



 Orbital guess generated from atomic densities. Full valence occupancy:    5

 Molecular orbital dump at record        2100.2

 Initial occupancy:   5

 ITERATION    DDIFF          GRAD             ENERGY        2-EL.EN.            DIPOLE MOMENTS         DIIS   ORB.
    1      0.000D+00      0.000D+00       -75.91119451     77.910947    0.00000    0.00000    1.61441    0    start
    2      0.000D+00      0.332D-01       -75.95054364     74.094232    0.00000   -0.00000    1.09733    1    diag
    3      0.493D-01      0.193D-01       -75.96272633     75.753146    0.00000    0.00000    1.19146    2    diag
    4      0.169D-01      0.182D-02       -75.96296765     75.672243    0.00000    0.00000    1.16153    3    diag
    5      0.273D-02      0.352D-03       -75.96298098     75.676737    0.00000    0.00000    1.15976    4    diag
    6      0.772D-03      0.772D-04       -75.96298173     75.676578    0.00000    0.00000    1.15934    5    diag
    7      0.202D-03      0.110D-04       -75.96298174     75.676392   -0.00000    0.00000    1.15940    6    diag
    8      0.215D-04      0.200D-05       -75.96298174     75.676363   -0.00000   -0.00000    1.15942    7    diag
    9      0.538D-05      0.272D-06       -75.96298174     75.676383   -0.00000    0.00000    1.15943    0    orth

 Final occupancy:   5

 !RHF STATE  1.1 Energy               -75.962981742195
 Nuclear energy                         9.44104076
 One-electron energy                 -123.24221421
 Two-electron energy                   37.83819172
 Virial quotient                       -0.99752900
 !RHF STATE  1.1 Dipole moment         -0.00000000     0.00000000     1.15942521
 Dipole moment /Debye                  -0.00000000     0.00000000     2.94677192

 Orbital energies:

         1.1          2.1          3.1          4.1          5.1          6.1          7.1
    -20.573085    -1.403484    -0.661291    -0.626875    -0.518180     0.156808     0.243512


 HOMO      5.1    -0.518180 =     -14.1004eV
 LUMO      6.1     0.156808 =       4.2670eV
 LUMO-HOMO         0.674988 =      18.3674eV


 **********************************************************************************************************************************
 DATASETS  * FILE   NREC   LENGTH (MB)   RECORD NAMES
              1      19       29.98       500      610      700      900      950      970     1000      129      960     1100   
                                          VAR    BASINP    GEOM    SYMINP    ZMAT    AOBASIS   BASIS     P2S    ABASIS      S 
                                         1400     1410     1200     1210     1080     1600     1650     1300     1700   
                                           T        V       H0       H01     AOSYM     SMH    MOLCAS    ERIS     OPER   

              2       4        2.75       700     1000      520     2100   
                                         GEOM     BASIS   MCVARS     RHF  

 PROGRAMS   *        TOTAL    HF-SCF       INT
 CPU TIMES  *         0.25      0.06      0.09
 REAL TIME  *         1.58 SEC
 DISK USED  *        34.71 MB
 **********************************************************************************************************************************


 PROGRAM * MP2 (Closed-shell)     Authors: C. Hampel, H.-J. Werner, 1991, M. Deegan, P.J. Knowles, 1992


 Convergence thresholds:  THRVAR = 1.00D-08  THRDEN = 1.00D-06

 Number of core orbitals:           1 (   1 )
 Number of closed-shell orbitals:   4 (   4 )
 Number of external orbitals:       9 (   9 )

 Molecular orbitals read from record     2100.2  Type=RHF/CANONICAL (state 1.1)

 Number of N-1 electron functions:               4
 Number of N-2 electron functions:              10
 Number of singly external CSFs:                36
 Number of doubly external CSFs:               666
 Total number of CSFs:                         703

 Length of J-op  integral file:               0.00 MB
 Length of K-op  integral file:               0.05 MB

 Integral transformation finished. Total CPU:   0.00 sec, npass=  1  Memory used:   0.07 MW

 Memory needed for MP2:                      0.00 MW

 SCS-MP2 correlation energy:           -0.124946008097   (PS=  1.200000  PT=  0.333333)
 SCS-MP2 total energy:                -76.087927750292


  Reference energy                    -75.962981742195
  MP2 singlet pair energy              -0.081226817914
  MP2 triplet pair energy              -0.044154364179
  MP2 correlation energy               -0.125381182093

 !MP2 total energy                    -76.088362924288


 **********************************************************************************************************************************
 DATASETS  * FILE   NREC   LENGTH (MB)   RECORD NAMES
              1      20       30.01       500      610      700      900      950      970     1000      129      960     1100   
                                          VAR    BASINP    GEOM    SYMINP    ZMAT    AOBASIS   BASIS     P2S    ABASIS      S 
                                         1400     1410     1200     1210     1080     1600     1650     1300     1700     1380   
                                           T        V       H0       H01     AOSYM     SMH    MOLCAS    ERIS     OPER     JKOP   

              2       4        2.75       700     1000      520     2100   
                                         GEOM     BASIS   MCVARS     RHF  

 PROGRAMS   *        TOTAL       MP2    HF-SCF       INT
 CPU TIMES  *         0.28      0.03      0.06      0.09
 REAL TIME  *         1.65 SEC
 DISK USED  *        34.71 MB
 **********************************************************************************************************************************


 PROGRAM * MP3 (Closed-shell)     Authors: C. Hampel, H.-J. Werner, 1991, M. Deegan, P.J. Knowles, 1992


 Convergence thresholds:  THRVAR = 1.00D-08  THRDEN = 1.00D-06

 Number of core orbitals:           1 (   1 )
 Number of closed-shell orbitals:   4 (   4 )
 Number of external orbitals:       9 (   9 )

 Molecular orbitals read from record     2100.2  Type=RHF/CANONICAL (state 1.1)

 Number of N-1 electron functions:               4
 Number of N-2 electron functions:              10
 Number of singly external CSFs:                36
 Number of doubly external CSFs:               666
 Total number of CSFs:                         703

 Length of J-op  integral file:               0.00 MB
 Length of K-op  integral file:               0.05 MB

 Coulomb and exchange operators available. No transformation done.

 Reference energy:                    -75.96298174

                        CORR.ENERGY   TOTAL ENERGY   ENERGY CHANGE
 MP2:                   -0.12538118   -76.08836292    -0.12538118

 SCS-MP2 correlation energy:           -0.12494601   (PS=  1.200000  PT=  0.333333)
 SCS-MP2 total energy:                -76.08792775

 MP3(D):                -0.12624628   -76.08922802    -0.00086510



 RESULTS
 =======

  Reference energy                    -75.962981742195
  MP3 singlet pair energy              -0.089666882849
  MP3 triplet pair energy              -0.036579396626
  MP3 correlation energy               -0.126246279475

 !MP3 total energy                    -76.089228021670

 Timing summary (sec):

 STEP                 CPU(USER)    SYS     CPU(TOT)    WALL
 CCSD iterations         0.01      0.00      0.01      0.01

 Program statistics:

 Available memory in ccsd:                 3999926
 Min. memory needed in ccsd:                  5277
 Max. memory used in ccsd:                    5283
 Max. memory used in cckext:                 38742 ( 1 integral passes)



 **********************************************************************************************************************************
 DATASETS  * FILE   NREC   LENGTH (MB)   RECORD NAMES
              1      20       30.01       500      610      700      900      950      970     1000      129      960     1100   
                                          VAR    BASINP    GEOM    SYMINP    ZMAT    AOBASIS   BASIS     P2S    ABASIS      S 
                                         1400     1410     1200     1210     1080     1600     1650     1300     1700     1380   
                                           T        V       H0       H01     AOSYM     SMH    MOLCAS    ERIS     OPER     JKOP   

              2       4        2.75       700     1000      520     2100   
                                         GEOM     BASIS   MCVARS     RHF  

 PROGRAMS   *        TOTAL       MP3       MP2    HF-SCF       INT
 CPU TIMES  *         0.31      0.03      0.03      0.06      0.09
 REAL TIME  *         1.69 SEC
 DISK USED  *        34.71 MB
 **********************************************************************************************************************************


 PROGRAM * CCSD (Closed-shell coupled cluster)     Authors: C. Hampel, H.-J. Werner, 1991, M. Deegan, P.J. Knowles, 1992


 Convergence thresholds:  THRVAR = 1.00D-08  THRDEN = 1.00D-06

 Number of core orbitals:           1 (   1 )
 Number of closed-shell orbitals:   4 (   4 )
 Number of external orbitals:       9 (   9 )

 Molecular orbitals read from record     2100.2  Type=RHF/CANONICAL (state 1.1)

 Number of N-1 electron functions:               0
 Number of N-2 electron functions:              10
 Number of singly external CSFs:                 0
 Number of doubly external CSFs:               666
 Total number of CSFs:                         667

 Length of J-op  integral file:               0.00 MB
 Length of K-op  integral file:               0.05 MB
 Length of 3-ext integral record:             0.00 MB

 Integral transformation finished. Total CPU:   0.00 sec, npass=  1  Memory used:   0.08 MW

 Reference energy:                    -75.96298174

 MP2 singlet pair energy:              -0.08122682
 MP2 triplet pair energy:              -0.04415436
 MP2 correlation energy:               -0.12538118
 MP2 total energy:                    -76.08836292

 SCS-MP2 correlation energy:           -0.12494601   (PS=  1.200000  PT=  0.333333)
 SCS-MP2 total energy:                -76.08792775

 ITER.      SQ.NORM     CORR.ENERGY   TOTAL ENERGY   ENERGY CHANGE        DEN1      VAR(S)    VAR(P)  DIIS     TIME  TIME/IT
   1      1.04256526    -0.12950752   -76.09248926    -0.00412633    -0.00157900  0.00D+00  0.75D-03  1  1     0.01     0.00
   2      1.04583914    -0.13073262   -76.09371437    -0.00122511    -0.00332148  0.00D+00  0.37D-04  2  2     0.01     0.00
   3      1.04638926    -0.13080385   -76.09378560    -0.00007123    -0.00045908  0.00D+00  0.18D-05  3  3     0.01     0.00
   4      1.04649114    -0.13080447   -76.09378621    -0.00000061    -0.00005723  0.00D+00  0.59D-07  4  4     0.01     0.00
   5      1.04650196    -0.13080394   -76.09378568     0.00000052    -0.00000685  0.00D+00  0.30D-08  5  5     0.01     0.00


 Doubles amplitudes (print threshold =  0.500E-01):

         I         J         SYM. A    SYM. B    A         B      T(IJ, AB)

         4         4         1         1         4         4     -0.05605118


 RESULTS
 =======

  Reference energy                    -75.962981742195
  CCD singlet pair energy              -0.096297869827
  CCD triplet pair energy              -0.034506072957
  CCD correlation energy               -0.130803942784

 !CCD total energy                    -76.093785684979

 Timing summary (sec):

 STEP                 CPU(USER)    SYS     CPU(TOT)    WALL
 CCSD iterations         0.01      0.01      0.02      0.15

 Program statistics:

 Available memory in ccsd:                 3999921
 Min. memory needed in ccsd:                  5277
 Max. memory used in ccsd:                    5283
 Max. memory used in cckext:                 38742 ( 5 integral passes)



 **********************************************************************************************************************************
 DATASETS  * FILE   NREC   LENGTH (MB)   RECORD NAMES
              1      20       30.02       500      610      700      900      950      970     1000      129      960     1100   
                                          VAR    BASINP    GEOM    SYMINP    ZMAT    AOBASIS   BASIS     P2S    ABASIS      S 
                                         1400     1410     1200     1210     1080     1600     1650     1300     1700     1380   
                                           T        V       H0       H01     AOSYM     SMH    MOLCAS    ERIS     OPER     JKOP   

              2       4        2.75       700     1000      520     2100   
                                         GEOM     BASIS   MCVARS     RHF  

 PROGRAMS   *        TOTAL      CCSD       MP3       MP2    HF-SCF       INT
 CPU TIMES  *         0.34      0.03      0.03      0.03      0.06      0.09
 REAL TIME  *         1.86 SEC
 DISK USED  *        34.71 MB
 **********************************************************************************************************************************


 PROGRAM * CI (Multireference internally contracted CI)     Authors: H.-J. Werner, P.J. Knowles, 1987


 CEPA  0
 =======


 Convergence thresholds:  THRVAR = 1.00D-08  THRDEN = 1.00D-06

 Number of optimized states:  1  Roots:   1
 Number of reference states:  1  Roots:   1

 Reference symmetry:                   1   Singlet 
 Number of electrons:                 10
 Maximum number of shells:             3
 Maximum number of spin couplings:     2

 Reference space:        1 conf        1 CSFs
 N elec internal:        1 conf        1 CSFs
 N-1 el internal:        4 conf        4 CSFs
 N-2 el internal:       10 conf       16 CSFs

 Number of electrons in valence space:                      8
 Maximum number of open shell orbitals in reference space:  0
 Maximum number of open shell orbitals in internal spaces:  4


 Number of core orbitals:           1 (   1 )
 Number of closed-shell orbitals:   4 (   4 )
 Number of external orbitals:       9 (   9 )

 Molecular orbitals read from record     2100.2  Type=RHF/CANONICAL (state 1.1)

 Coulomb and exchange operators available. No transformation done.
 

 Number of p-space configurations:   1

 Reference wavefunction optimized for reference space (refopt=1)

 State     Reference Energy 
   1         -75.96298174

 Number of blocks in overlap matrix:    16   Smallest eigenvalue:  0.10D+01
 Number of N-2 electron functions:      16

 Number of internal configurations:                    1
 Number of singly external configurations:             0
 Number of doubly external configurations:           666
 Total number of contracted configurations:          667
 Total number of uncontracted configurations:        667

 Diagonal Coupling coefficients finished.               Storage:    1332 words, CPU-Time:      0.00 seconds.
 Energy denominators for pairs finished in 1 passes.    Storage:    1628 words, CPU-time:      0.00 seconds.

  ITER. STATE  ROOT     SQ.NORM     CORR.ENERGY   TOTAL ENERGY   ENERGY CHANGE       DEN1      VAR(S)    VAR(P)      TIME
    1     1     1     1.00000000    -0.00000000   -75.96298174    -0.00000000    -0.14557058  0.00D+00  0.55D-01     0.01
    2     1     1     1.04144953    -0.12632304   -76.08930478    -0.12632304    -0.00335975  0.00D+00  0.13D-02     0.01
    3     1     1     1.04663499    -0.13082306   -76.09380480    -0.00450002    -0.00010528  0.00D+00  0.42D-04     0.01
    4     1     1     1.04717560    -0.13096416   -76.09394590    -0.00014110    -0.00000376  0.00D+00  0.16D-05     0.01
    5     1     1     1.04721556    -0.13096891   -76.09395065    -0.00000475    -0.00000015  0.00D+00  0.66D-07     0.01
    6     1     1     1.04721356    -0.13096910   -76.09395084    -0.00000019    -0.00000001  0.00D+00  0.37D-08     0.01
    7     1     1     1.04721260    -0.13096911   -76.09395085    -0.00000001    -0.00000000  0.00D+00  0.18D-09     0.01


 =====================================
 Analysis of CPU times by interactions
 =====================================

       I      S      P

 I   0.0%
 S   0.0%   0.0%
 P   0.0%   0.0%   0.0%

 Initialization: 100.0%
 Other:            0.0%

 Total CPU:        0.0 seconds
 =====================================



 Reference coefficients greater than 0.0500000
 =============================================
 2222           0.9771980

 Coefficients of doubly external configurations greater than 0.0500000
 =====================================================================

 PAIR    I     J   ->   K     L     NP  SYM  REF     COEFFICIENTS

  16    5.1   5.1      9.1   9.1     1   1    1   -0.05491628



 RESULTS FOR STATE  1.1
 =====================

 Coefficient of reference function:   C(0) = 0.97719800 (fixed)   0.97719800 (relaxed)

 Energy contributions of configuration classes

 CLASS          SQ.NORM        ECORR1        ECORR2
 +++++++++++++++++++++++++++++++++++++++++++++++++++
 Internals    0.00000000    0.00000000    0.00000000
 Singles      0.00000000    0.00000000    0.00000000
 Pairs        0.04721260   -0.13096911   -0.13096911
 Total        1.04721260   -0.13096911   -0.13096911
 +++++++++++++++++++++++++++++++++++++++++++++++++++

 ACPF density matrix scaling factor=   1.047213


 Reference energy                     -75.96298174
 Nuclear energy                         9.44104076
 Kinetic energy                        76.26922189
 One electron energy                 -123.09931260
 Two electron energy                   37.56432100
 Virial quotient                       -0.99770194
 Correlation energy                    -0.13096911
 !ACPF STATE  1.1 Energy              -76.093950850162

 Properties without orbital relaxation:

 !ACPF STATE  1.1 Dipole moment        -0.00000000     0.00000000     1.14344225
 Dipole moment /Debye                  -0.00000000     0.00000000     2.90614995


 **********************************************************************************************************************************
 DATASETS  * FILE   NREC   LENGTH (MB)   RECORD NAMES
              1      20       30.02       500      610      700      900      950      970     1000      129      960     1100   
                                          VAR    BASINP    GEOM    SYMINP    ZMAT    AOBASIS   BASIS     P2S    ABASIS      S 
                                         1400     1410     1200     1210     1080     1600     1650     1300     1700     1380   
                                           T        V       H0       H01     AOSYM     SMH    MOLCAS    ERIS     OPER     JKOP   

              2       4        2.75       700     1000      520     2100   
                                         GEOM     BASIS   MCVARS     RHF  

 PROGRAMS   *        TOTAL      CEPA      CCSD       MP3       MP2    HF-SCF       INT
 CPU TIMES  *         0.37      0.03      0.03      0.03      0.03      0.06      0.09
 REAL TIME  *         1.96 SEC
 DISK USED  *        34.71 MB
 **********************************************************************************************************************************



 PROGRAM * FCIQMC (Monte-Carlo Full Configuration Interaction)    Authors: A. Alavi, G. Booth, 2011

 
 Molecular orbitals read from record     2100.2  Type=RHF/CANONICAL (state 1.1)
 
 Frozen orbitals:              1 (  1  0  0  0  0  0  0  0)
 Active orbitals:             13 ( 13  0  0  0  0  0  0  0)
 Active electrons:             8
 Spin quantum number:          0.0

 Transformed integrals will be written to file FCIDUMP_00021342_bra04 (relative to TMPDIR)
 File format: FCIDUMP.

 Load integrals                0.6 sec
 Transform integrals           0.6 sec
 FCIDUMPED...
 
 Entering NECI for FCIQMC calculation...
