 &FCI NORB= 13,NELEC= 10,MS2= 0,
  ORBSYM=1,1,1,1,1,1,1,1,1,1,1,1,1,
  ISYM=0,
 /
  0.4739248671526464E+01   1   1   1   1
 -0.4196695567086669E+00   2   1   1   1
  0.6086926872601010E-01   2   1   2   1
  0.1027211947304385E+01   2   2   1   1
 -0.1241306194983162E-01   2   2   2   1
  0.7435331541740312E+00   2   2   2   2
  0.4984028856755005E-15   3   1   1   1
 -0.6941106777481930E-16   3   1   2   1
  0.1114944317846976E-16   3   1   2   2
  0.1872008107764176E-01   3   1   3   1
 -0.4585548454409514E-15   3   2   1   1
  0.1864827736675068E-16   3   2   2   1
 -0.1195265350773258E-15   3   2   2   2
  0.2207563575017135E-01   3   2   3   1
  0.1485804342856345E+00   3   2   3   2
  0.8601428319629756E+00   3   3   1   1
 -0.5980547143250747E-02   3   3   2   1
  0.6647897838115361E+00   3   3   2   2
 -0.2482822974991805E-16   3   3   3   1
  0.5247538514829841E-16   3   3   3   2
  0.6485487606819558E+00   3   3   3   3
  0.1462108812947293E+00   4   1   1   1
 -0.1662865919994086E-01   4   1   2   1
  0.1543236341118757E-01   4   1   2   2
  0.3877674480882824E-16   4   1   3   1
  0.9513874063560301E-17   4   1   3   2
  0.5980755466943879E-02   4   1   3   3
  0.2891646977645876E-01   4   1   4   1
 -0.8697635153722728E-01   4   2   1   1
  0.8166781068579761E-02   4   2   2   1
  0.2089964967169230E-01   4   2   2   2
  0.5749659645962191E-17   4   2   3   1
  0.6277530578691071E-16   4   2   3   2
  0.9974862643882174E-02   4   2   3   3
  0.2060442869139003E-01   4   2   4   1
  0.1148673606596212E+00   4   2   4   2
  0.6607479470250962E-15   4   3   1   1
 -0.2125798587724118E-16   4   3   2   1
  0.2989959219295410E-15   4   3   2   2
 -0.3977975038753571E-02   4   3   3   1
  0.1339194270460921E-01   4   3   3   2
  0.3681061033305945E-15   4   3   3   3
 -0.3325197241036207E-16   4   3   4   1
 -0.2429968119083137E-15   4   3   4   2
  0.4098864936564119E-01   4   3   4   3
  0.9635998554247248E+00   4   4   1   1
 -0.1270054319896927E-01   4   4   2   1
  0.6565794206769934E+00   4   4   2   2
 -0.1948853405042694E-16   4   4   3   1
 -0.3751339516799845E-15   4   4   3   2
  0.5917855654077552E+00   4   4   3   3
 -0.1099903764963227E-01   4   4   4   1
 -0.7990058784997511E-01   4   4   4   2
  0.3868433351428280E-15   4   4   4   3
  0.7212952053064613E+00   4   4   4   4
 -0.5882484396780669E-16   5   1   1   1
 -0.5878550543827275E-17   5   1   2   1
 -0.2190448533044576E-16   5   1   2   2
 -0.2557097392317756E-16   5   1   3   1
 -0.1941290039490378E-16   5   1   3   2
 -0.3001671469053217E-17   5   1   3   3
  0.9021616920790087E-17   5   1   4   1
  0.1304479026472529E-16   5   1   4   2
  0.7538923366320359E-17   5   1   4   3
 -0.9249315163160951E-17   5   1   4   4
  0.2806696785540634E-01   5   1   5   1
 -0.1560236097088514E-15   5   2   1   1
 -0.1070658618921527E-16   5   2   2   1
 -0.1372889173770950E-15   5   2   2   2
 -0.1508515275683753E-16   5   2   3   1
  0.2311150414594214E-16   5   2   3   2
 -0.7118709357627568E-16   5   2   3   3
  0.7707801552036590E-17   5   2   4   1
  0.2967709941810493E-16   5   2   4   2
  0.4897360399413268E-16   5   2   4   3
 -0.7193924477138380E-16   5   2   4   4
  0.2832632933565046E-01   5   2   5   1
  0.1261089040696710E+00   5   2   5   2
 -0.2669303646506762E-15   5   3   1   1
  0.1029614579835074E-16   5   3   2   1
 -0.1576287002608369E-16   5   3   2   2
  0.1530628103475768E-17   5   3   3   1
 -0.1237924413041737E-16   5   3   3   2
  0.1600059568825572E-16   5   3   3   3
  0.1635107477324548E-17   5   3   4   1
  0.6626121288117117E-16   5   3   4   2
 -0.8924377489672930E-17   5   3   4   3
 -0.4718768342619474E-16   5   3   4   4
 -0.3055082509888330E-16   5   3   5   1
 -0.9075621394664707E-16   5   3   5   2
  0.2778340830710185E-01   5   3   5   3
  0.1332043002364554E-15   5   4   1   1
  0.1931899888260361E-17   5   4   2   1
  0.6837810748291682E-16   5   4   2   2
  0.1004197786550423E-16   5   4   3   1
  0.6066137553116624E-16   5   4   3   2
  0.2999684079752234E-16   5   4   3   3
  0.1460409482304589E-17   5   4   4   1
 -0.6751950431549405E-17   5   4   4   2
  0.8238396277032964E-18   5   4   4   3
  0.4017118371351608E-16   5   4   4   4
 -0.9894129715259270E-02   5   4   5   1
 -0.3480271622974981E-01   5   4   5   2
  0.5289231261809351E-16   5   4   5   3
  0.4438055347100361E-01   5   4   5   4
  0.1012613434342007E+01   5   5   1   1
 -0.1030407845842499E-01   5   5   2   1
  0.6951688599207564E+00   5   5   2   2
 -0.2466559942404523E-17   5   5   3   1
 -0.1890848588814720E-15   5   5   3   2
  0.6041633062097496E+00   5   5   3   3
  0.3287660977942898E-02   5   5   4   1
 -0.4233123228639438E-01   5   5   4   2
  0.3677613769070831E-15   5   5   4   3
  0.6495375546994452E+00   5   5   4   4
  0.1027055863738668E-16   5   5   5   1
  0.3903412124729772E-17   5   5   5   2
 -0.7796870475157390E-16   5   5   5   3
  0.2903188878139328E-16   5   5   5   4
  0.7408427685730650E+00   5   5   5   5
  0.1602644556406101E+00   6   1   1   1
 -0.2514144433442210E-01   6   1   2   1
  0.7862339498906666E-03   6   1   2   2
 -0.1567106243627022E-16   6   1   3   1
 -0.6234162491791650E-16   6   1   3   2
  0.7927054893435246E-03   6   1   3   3
 -0.1451209110134008E-02   6   1   4   1
 -0.1088424546016270E-01   6   1   4   2
  0.2942253645582538E-16   6   1   4   3
  0.9632927287416765E-02   6   1   4   4
 -0.8362654547786099E-17   6   1   5   1
 -0.5094944413039355E-17   6   1   5   2
 -0.5251724789624506E-17   6   1   5   3
  0.1163151931765986E-17   6   1   5   4
  0.3483578633383866E-02   6   1   5   5
  0.1323385454223707E-01   6   1   6   1
 -0.2318878703534961E+00   6   2   1   1
  0.4323630573574801E-02   6   2   2   1
 -0.1181377216313291E+00   6   2   2   2
 -0.6356135236196270E-16   6   2   3   1
 -0.2074078755964770E-15   6   2   3   2
 -0.7874454547849941E-01   6   2   3   3
 -0.1139614676930622E-01   6   2   4   1
 -0.1817198465362879E-01   6   2   4   2
 -0.1604619215278547E-16   6   2   4   3
 -0.7605035196994496E-01   6   2   4   4
 -0.8113598706978865E-18   6   2   5   1
  0.8688735243808154E-17   6   2   5   2
  0.3721031736542695E-16   6   2   5   3
 -0.1884761741391715E-16   6   2   5   4
 -0.1050441455461203E+00   6   2   5   5
  0.1741195692410692E-02   6   2   6   1
  0.4799594890810053E-01   6   2   6   2
 -0.1275170698445515E-14   6   3   1   1
  0.1624651544481111E-16   6   3   2   1
 -0.7267432947155074E-15   6   3   2   2
 -0.4078924597822604E-02   6   3   3   1
  0.9627465803060209E-02   6   3   3   2
 -0.5596171644738371E-15   6   3   3   3
  0.1416662604282817E-17   6   3   4   1
  0.1151287181908045E-15   6   3   4   2
  0.8205654036704056E-02   6   3   4   3
 -0.7184855877673075E-15   6   3   4   4
  0.7001453253690639E-17   6   3   5   1
  0.4162036891469011E-16   6   3   5   2
 -0.9842434490711396E-17   6   3   5   3
  0.8368825294301250E-17   6   3   5   4
 -0.6420030241244375E-15   6   3   5   5
  0.1557185370232306E-16   6   3   6   1
  0.3227669867489347E-15   6   3   6   2
  0.2685357664156700E-01   6   3   6   3
 -0.1357292267527028E+00   6   4   1   1
  0.9767467448948165E-03   6   4   2   1
 -0.6764551753110395E-01   6   4   2   2
  0.1450543922172989E-16   6   4   3   1
  0.7537915604205470E-16   6   4   3   2
 -0.4243286017431487E-01   6   4   3   3
 -0.2996981680016030E-02   6   4   4   1
  0.1094606380058687E-01   6   4   4   2
 -0.1699486905371028E-15   6   4   4   3
 -0.7297980708898355E-01   6   4   4   4
 -0.1480791544376916E-17   6   4   5   1
 -0.1988970592514792E-17   6   4   5   2
  0.2918765742999746E-16   6   4   5   3
 -0.1174300970931540E-16   6   4   5   4
 -0.6538920379486032E-01   6   4   5   5
  0.6106776269909327E-03   6   4   6   1
  0.2683221173635148E-01   6   4   6   2
  0.1938553484404082E-15   6   4   6   3
  0.2767762669475996E-01   6   4   6   4
 -0.1574032845443516E-15   6   5   1   1
  0.6433145437636558E-17   6   5   2   1
 -0.7298973301411255E-16   6   5   2   2
  0.6758400731254188E-17   6   5   3   1
  0.2926970642874504E-16   6   5   3   2
 -0.7140517227026246E-16   6   5   3   3
 -0.5536460196055626E-17   6   5   4   1
 -0.8378722719067457E-17   6   5   4   2
  0.4373762554998946E-17   6   5   4   3
 -0.7188035041389427E-16   6   5   4   4
 -0.8506326349584059E-02   6   5   5   1
 -0.2621229156022050E-01   6   5   5   2
 -0.3742654575246180E-16   6   5   5   3
 -0.2563342309943629E-03   6   5   5   4
 -0.1047683247735317E-15   6   5   5   5
  0.1199988987017059E-17   6   5   6   1
  0.2535153037842510E-16   6   5   6   2
 -0.1099483964986046E-17   6   5   6   3
  0.1648227131666892E-16   6   5   6   4
  0.1358102696749613E-01   6   5   6   5
  0.4679957756702514E+00   6   6   1   1
 -0.2179274718966728E-02   6   6   2   1
  0.4081230085016946E+00   6   6   2   2
  0.7704611688225116E-16   6   6   3   1
  0.7788908407135864E-15   6   6   3   2
  0.3923416310847364E+00   6   6   3   3
  0.8463116808875555E-02   6   6   4   1
  0.3641129953011993E-01   6   6   4   2
  0.3452099717193846E-15   6   6   4   3
  0.3658347173505287E+00   6   6   4   4
  0.1776601227881177E-17   6   6   5   1
 -0.2437419119674862E-16   6   6   5   2
  0.4069805702823208E-16   6   6   5   3
  0.1894599570840236E-16   6   6   5   4
  0.3748584252163535E+00   6   6   5   5
 -0.1830762285841690E-02   6   6   6   1
 -0.2706144240028246E-01   6   6   6   2
  0.4510281037539698E-15   6   6   6   3
 -0.3630895630482522E-02   6   6   6   4
 -0.3111697620193794E-16   6   6   6   5
  0.3417441481643820E+00   6   6   6   6
 -0.7423337519616620E-15   7   1   1   1
  0.8606929417155520E-16   7   1   2   1
 -0.8797145322848295E-16   7   1   2   2
 -0.1323011494123662E-01   7   1   3   1
 -0.1517773758448085E-01   7   1   3   2
 -0.7582352302398094E-16   7   1   3   3
  0.7879709280290341E-16   7   1   4   1
  0.1257606757447405E-15   7   1   4   2
  0.2983830548956641E-02   7   1   4   3
 -0.1872307543511283E-15   7   1   4   4
  0.1466140631773864E-16   7   1   5   1
  0.7306136935717469E-17   7   1   5   2
 -0.1161323922573291E-17   7   1   5   3
 -0.5713127978231794E-17   7   1   5   4
 -0.1218071195577193E-15   7   1   5   5
 -0.4498054646341675E-16   7   1   6   1
  0.4721700461174372E-16   7   1   6   2
  0.2791124691651518E-02   7   1   6   3
 -0.2054563116860031E-16   7   1   6   4
 -0.3737421392864756E-17   7   1   6   5
 -0.1084626808243925E-15   7   1   6   6
  0.9354582321677367E-02   7   1   7   1
  0.1868154069513748E-15   7   2   1   1
  0.2302161435254304E-16   7   2   2   1
  0.1120075712659356E-15   7   2   2   2
 -0.1114995903822029E-01   7   2   3   1
 -0.3878507818271033E-01   7   2   3   2
 -0.1275025804481357E-16   7   2   3   3
  0.8602244266166020E-16   7   2   4   1
  0.3252199941641831E-15   7   2   4   2
  0.1541974904400182E-01   7   2   4   3
 -0.2801044180953461E-15   7   2   4   4
  0.9745701285523401E-17   7   2   5   1
  0.2033495969925388E-16   7   2   5   2
 -0.4151137179825501E-17   7   2   5   3
 -0.5467391090420504E-17   7   2   5   4
  0.2358744823413282E-16   7   2   5   5
 -0.2205991432005418E-16   7   2   6   1
  0.3808260130855334E-16   7   2   6   2
  0.1430832922903390E-01   7   2   6   3
 -0.2288750786116900E-15   7   2   6   4
 -0.6387168120945873E-17   7   2   6   5
 -0.3479389522296187E-15   7   2   6   6
  0.7736393670098960E-02   7   2   7   1
  0.2665004139706473E-01   7   2   7   2
 -0.2846572066040694E+00   7   3   1   1
  0.5167085772729625E-02   7   3   2   1
 -0.1307489669156965E+00   7   3   2   2
 -0.2305623682426206E-17   7   3   3   1
 -0.6846736719245961E-16   7   3   3   2
 -0.1091031329601290E+00   7   3   3   3
  0.4530153424788658E-04   7   3   4   1
  0.3661059296020318E-01   7   3   4   2
 -0.1847480501915300E-15   7   3   4   3
 -0.1287925541579541E+00   7   3   4   4
  0.2734584082027359E-18   7   3   5   1
  0.8911423497849334E-17   7   3   5   2
  0.6779414947509196E-16   7   3   5   3
 -0.1339157170026888E-16   7   3   5   4
 -0.1347145816022508E+00   7   3   5   5
 -0.2456319960863904E-02   7   3   6   1
  0.4127431542839268E-01   7   3   6   2
  0.1795438797635995E-15   7   3   6   3
  0.3354167627891014E-01   7   3   6   4
  0.2557826694124777E-16   7   3   6   5
 -0.1228824459109577E-01   7   3   6   6
  0.6429318882839041E-16   7   3   7   1
 -0.8326672684688674E-16   7   3   7   2
  0.7351791446838397E-01   7   3   7   3
  0.2272490242807143E-14   7   4   1   1
 -0.4458527324462461E-16   7   4   2   1
  0.1034923380525949E-14   7   4   2   2
  0.5704209227769540E-02   7   4   3   1
  0.3894567659645699E-01   7   4   3   2
  0.7113115282110646E-15   7   4   3   3
 -0.4208694956669805E-16   7   4   4   1
 -0.4621140709676341E-15   7   4   4   2
 -0.7318579409761095E-02   7   4   4   3
  0.1306658959532273E-14   7   4   4   4
 -0.3550621215917898E-17   7   4   5   1
  0.1559835917374689E-16   7   4   5   2
 -0.2299671852310031E-17   7   4   5   3
  0.1799714709340188E-16   7   4   5   4
  0.1127877880506072E-14   7   4   5   5
  0.1879015538541577E-16   7   4   6   1
 -0.3595214403961933E-15   7   4   6   2
  0.1456151306766201E-01   7   4   6   3
 -0.3163701939312702E-15   7   4   6   4
  0.4905505697976836E-17   7   4   6   5
  0.4462139402919565E-15   7   4   6   6
 -0.4052040489871634E-02   7   4   7   1
 -0.7288901632025168E-02   7   4   7   2
 -0.6969251564736823E-15   7   4   7   3
  0.2374633497192195E-01   7   4   7   4
  0.2344561898802233E-15   7   5   1   1
 -0.5200260936127683E-17   7   5   2   1
  0.1165443080581925E-15   7   5   2   2
 -0.2176647426567037E-17   7   5   3   1
 -0.8482626463681939E-17   7   5   3   2
  0.1112330231396293E-15   7   5   3   3
  0.2093137375506601E-17   7   5   4   1
 -0.6575250299405638E-18   7   5   4   2
 -0.7231631814076668E-19   7   5   4   3
  0.1021219412358089E-15   7   5   4   4
 -0.2236598084281853E-17   7   5   5   1
  0.1942976816426489E-16   7   5   5   2
 -0.1243003097707698E-01   7   5   5   3
  0.1118959846255297E-15   7   5   5   4
  0.1164409140919908E-15   7   5   5   5
  0.1663616192929187E-17   7   5   6   1
 -0.2614609396696996E-16   7   5   6   2
  0.4711814953518670E-17   7   5   6   3
 -0.1326411960526742E-16   7   5   6   4
 -0.1285454670575588E-16   7   5   6   5
  0.3695108538732421E-16   7   5   6   6
  0.1574296587866166E-17   7   5   7   1
  0.4682692898040726E-17   7   5   7   2
 -0.3583665825213024E-16   7   5   7   3
 -0.1110704214025030E-17   7   5   7   4
  0.8440586115652503E-02   7   5   7   5
 -0.3892477001837067E-15   7   6   1   1
 -0.1493573195893508E-16   7   6   2   1
 -0.4495092367380062E-15   7   6   2   2
  0.5658288530120304E-02   7   6   3   1
  0.6015614933304692E-01   7   6   3   2
 -0.2887359102849568E-15   7   6   3   3
 -0.3051520895778342E-16   7   6   4   1
 -0.1887867032840385E-15   7   6   4   2
  0.2206659254726904E-01   7   6   4   3
 -0.5007997982451138E-15   7   6   4   4
 -0.3615011432802390E-17   7   6   5   1
  0.3253002511109101E-16   7   6   5   2
 -0.2776673624845684E-17   7   6   5   3
  0.2424638394704574E-16   7   6   5   4
 -0.4190826210244278E-15   7   6   5   5
  0.2333872231217136E-16   7   6   6   1
  0.1275021754842953E-15   7   6   6   2
  0.3370261870418133E-01   7   6   6   3
 -0.4336808689942018E-18   7   6   6   4
  0.3577215749051715E-17   7   6   6   5
  0.1216729441050162E-14   7   6   6   6
 -0.3817275993481991E-02   7   6   7   1
  0.4858069789532186E-02   7   6   7   2
 -0.1335737076502141E-15   7   6   7   3
  0.2852487716264532E-01   7   6   7   4
  0.4706701531478547E-17   7   6   7   5
  0.8731931897752089E-01   7   6   7   6
  0.4922413948028352E+00   7   7   1   1
 -0.3227871836679580E-02   7   7   2   1
  0.4070030704391129E+00   7   7   2   2
 -0.9866239769618090E-17   7   7   3   1
 -0.6179952383167375E-15   7   7   3   2
  0.4071711309552599E+00   7   7   3   3
  0.1879596925518031E-02   7   7   4   1
  0.9406662610292871E-02   7   7   4   2
 -0.3634245682171411E-15   7   7   4   3
  0.3808538288797917E+00   7   7   4   4
 -0.9897809608790819E-18   7   7   5   1
 -0.3015695344644526E-16   7   7   5   2
  0.2687247366828126E-16   7   7   5   3
  0.1435051071520945E-16   7   7   5   4
  0.3807045579837567E+00   7   7   5   5
  0.8924087588029414E-03   7   7   6   1
 -0.2116843669912766E-01   7   7   6   2
 -0.6661338147750939E-15   7   7   6   3
 -0.1468990436750292E-02   7   7   6   4
 -0.2589388061262692E-16   7   7   6   5
  0.3367358154317620E+00   7   7   6   6
 -0.2916503843986007E-16   7   7   7   1
 -0.2012279232133096E-15   7   7   7   2
 -0.2321248156514333E-01   7   7   7   3
 -0.3885780586188048E-15   7   7   7   4
  0.3997484690427064E-16   7   7   7   5
 -0.1665334536937735E-14   7   7   7   6
  0.3495507994588717E+00   7   7   7   7
 -0.1579543926312845E-14   8   1   1   1
  0.1763158372016134E-15   8   1   2   1
 -0.1519316459452289E-15   8   1   2   2
 -0.4185957247919695E-02   8   1   3   1
 -0.4782795132944909E-02   8   1   3   2
 -0.4285923563296145E-16   8   1   3   3
 -0.3773971443057092E-15   8   1   4   1
 -0.2606523666608823E-15   8   1   4   2
  0.1400245321679944E-02   8   1   4   3
  0.1729634269019684E-15   8   1   4   4
  0.8567096996934965E-17   8   1   5   1
  0.4799754743001877E-17   8   1   5   2
 -0.6379007933643310E-18   8   1   5   3
 -0.2479565810126812E-17   8   1   5   4
 -0.4524937423927944E-17   8   1   5   5
  0.5018132875955815E-16   8   1   6   1
  0.1303820875049599E-15   8   1   6   2
  0.7670543641734541E-03   8   1   6   3
  0.3468769325595811E-16   8   1   6   4
 -0.1972518539970891E-17   8   1   6   5
 -0.7893382736170224E-16   8   1   6   6
  0.2964300564972366E-02   8   1   7   1
  0.2521425773048407E-02   8   1   7   2
 -0.8294146619514109E-17   8   1   7   3
 -0.1559689893236580E-02   8   1   7   4
  0.6302515880596708E-18   8   1   7   5
 -0.1173938811104045E-02   8   1   7   6
  0.1767241858075045E-17   8   1   7   7
  0.9511810917031507E-03   8   1   8   1
  0.9160202046845375E-15   8   2   1   1
 -0.7782665774314600E-16   8   2   2   1
  0.1236893332304531E-15   8   2   2   2
 -0.2340006600006490E-02   8   2   3   1
  0.1889714853677216E-01   8   2   3   2
  0.1719117371891758E-15   8   2   3   3
 -0.1259838689263420E-15   8   2   4   1
 -0.4720616259001886E-15   8   2   4   2
  0.3346747324619163E-01   8   2   4   3
  0.3443223692022154E-15   8   2   4   4
 -0.1494421604792174E-17   8   2   5   1
 -0.6430294383901442E-18   8   2   5   2
 -0.2442121650889228E-16   8   2   5   3
  0.3884373989522544E-16   8   2   5   4
  0.3899618220787336E-15   8   2   5   5
  0.8208151599544116E-16   8   2   6   1
  0.3968179951296946E-16   8   2   6   2
  0.9043211458845379E-02   8   2   6   3
 -0.1366094737331736E-16   8   2   6   4
  0.8493381231395845E-17   8   2   6   5
  0.1901583815043477E-15   8   2   6   6
  0.1729162750707394E-02   8   2   7   1
  0.1243695832416780E-01   8   2   7   2
 -0.1808449223705821E-15   8   2   7   3
 -0.3130566252993391E-03   8   2   7   4
  0.1517933991553376E-17   8   2   7   5
  0.1612463299952097E-01   8   2   7   6
 -0.1123960791055518E-15   8   2   7   7
  0.7649378474314607E-03   8   2   8   1
  0.3687898393254162E-01   8   2   8   2
 -0.5045584042377302E-01   8   3   1   1
  0.2872804826576031E-02   8   3   2   1
  0.2782248429743953E-01   8   3   2   2
  0.4269384867340575E-16   8   3   3   1
  0.2591243192240356E-16   8   3   3   2
  0.3914239917079251E-01   8   3   3   3
  0.5574848434319567E-02   8   3   4   1
  0.6519980784748643E-01   8   3   4   2
 -0.3191891195797325E-15   8   3   4   3
 -0.1522095905366630E-01   8   3   4   4
 -0.2230309133625085E-17   8   3   5   1
 -0.3736430757944370E-16   8   3   5   2
  0.7505423323602408E-16   8   3   5   3
 -0.2040365158698409E-17   8   3   5   4
 -0.1787870838301781E-01   8   3   5   5
 -0.3205990971453767E-02   8   3   6   1
  0.2530431745980430E-02   8   3   6   2
 -0.5204170427930421E-17   8   3   6   3
  0.1664567789226565E-01   8   3   6   4
 -0.1737959437778231E-17   8   3   6   5
  0.3166828849979923E-01   8   3   6   6
  0.7535205098774256E-17   8   3   7   1
  0.2602085213965211E-16   8   3   7   2
  0.3346790202711715E-01   8   3   7   3
 -0.2853620117981848E-15   8   3   7   4
  0.1113662821087855E-16   8   3   7   5
 -0.1942890293094024E-15   8   3   7   6
  0.2081983930797360E-01   8   3   7   7
 -0.8998878031629687E-16   8   3   8   1
 -0.4008295431678910E-15   8   3   8   2
  0.8061235520517417E-01   8   3   8   3
 -0.4889477316130990E-14   8   4   1   1
  0.1396240639924516E-15   8   4   2   1
 -0.1986730150043169E-14   8   4   2   2
  0.6921950057824671E-02   8   4   3   1
  0.7036825803136640E-01   8   4   3   2
 -0.1627950742718666E-14   8   4   3   3
  0.5545101189200277E-16   8   4   4   1
  0.1717376241217039E-15   8   4   4   2
  0.6547791776949200E-02   8   4   4   3
 -0.2087930485140808E-14   8   4   4   4
  0.6829439386375619E-18   8   4   5   1
  0.6327499991488964E-16   8   4   5   2
 -0.1004402692978826E-16   8   4   5   3
  0.1162035114621947E-16   8   4   5   4
 -0.1832351470801346E-14   8   4   5   5
 -0.9494477009068178E-16   8   4   6   1
  0.4063589742475671E-15   8   4   6   2
  0.1574645949495555E-01   8   4   6   3
  0.2836272883222080E-15   8   4   6   4
  0.1256724481877735E-16   8   4   6   5
 -0.2610711011298143E-15   8   4   6   6
 -0.4790933088186065E-02   8   4   7   1
 -0.1139942514917640E-01   8   4   7   2
  0.4657732532997727E-15   8   4   7   3
  0.2645171826842755E-01   8   4   7   4
 -0.7251864529103094E-17   8   4   7   5
  0.3110905784286291E-01   8   4   7   6
 -0.1060164871156855E-14   8   4   7   7
 -0.1610464276552601E-02   8   4   8   1
  0.1604190908479364E-01   8   4   8   2
 -0.2281161370909501E-15   8   4   8   3
  0.4872751099081779E-01   8   4   8   4
  0.4632397807760696E-16   8   5   1   1
 -0.1703262100770045E-17   8   5   2   1
  0.4292684815406378E-16   8   5   2   2
 -0.5464838611717609E-17   8   5   3   1
 -0.6733905128601800E-16   8   5   3   2
  0.8152411959739328E-16   8   5   3   3
  0.6887900445720843E-17   8   5   4   1
  0.7480049501661267E-16   8   5   4   2
 -0.1582458956060917E-16   8   5   4   3
 -0.5772665942786308E-17   8   5   4   4
  0.1069973932120271E-15   8   5   5   1
  0.3550564857669335E-15   8   5   5   2
 -0.1049187758670314E-01   8   5   5   3
 -0.1597621725417891E-15   8   5   5   4
 -0.4086702510802206E-16   8   5   5   5
 -0.1431641666942368E-17   8   5   6   1
 -0.3399444285281387E-18   8   5   6   2
 -0.1731025458423853E-16   8   5   6   3
  0.2047252302898079E-16   8   5   6   4
 -0.2948418890232931E-16   8   5   6   5
  0.4557136706202024E-16   8   5   6   6
  0.3743755981693352E-17   8   5   7   1
  0.6336177012966469E-17   8   5   7   2
  0.2621411945907111E-16   8   5   7   3
 -0.2245869181570851E-16   8   5   7   4
  0.5060117159689677E-02   8   5   7   5
 -0.4105602947893701E-16   8   5   7   6
  0.4552023405142222E-16   8   5   7   7
  0.1244875947235817E-17   8   5   8   1
 -0.1510195687345617E-16   8   5   8   2
  0.1034176425315089E-15   8   5   8   3
 -0.4316523511938207E-16   8   5   8   4
  0.8238284216125968E-02   8   5   8   5
  0.1057181236605108E-14   8   6   1   1
  0.3320369153236857E-18   8   6   2   1
  0.4438077823580887E-15   8   6   2   2
 -0.9583696980067931E-04   8   6   3   1
 -0.2695130144291079E-02   8   6   3   2
  0.3017928549883296E-15   8   6   3   3
  0.3777692829371295E-16   8   6   4   1
  0.1554728974685268E-15   8   6   4   2
  0.8240243846631580E-02   8   6   4   3
  0.3696469691806842E-15   8   6   4   4
 -0.1678190122674246E-17   8   6   5   1
 -0.9637933485550977E-17   8   6   5   2
 -0.6679926377534725E-17   8   6   5   3
  0.1233879369124216E-16   8   6   5   4
  0.4520019483381456E-15   8   6   5   5
 -0.7377312863450134E-17   8   6   6   1
 -0.1364197383529886E-15   8   6   6   2
 -0.4308844077154638E-02   8   6   6   3
 -0.1240056234780296E-15   8   6   6   4
  0.3688766175207886E-17   8   6   6   5
 -0.3287627373307625E-15   8   6   6   6
  0.5240797445926970E-04   8   6   7   1
  0.2882189242445053E-02   8   6   7   2
 -0.1269600743980526E-15   8   6   7   3
 -0.3614603515587621E-02   8   6   7   4
 -0.4808167557022723E-17   8   6   7   5
 -0.1213796712379916E-01   8   6   7   6
  0.1947717805092045E-15   8   6   7   7
  0.4386137814466060E-04   8   6   8   1
  0.1282467063107580E-01   8   6   8   2
 -0.1138412281109780E-17   8   6   8   3
 -0.2545335958017275E-03   8   6   8   4
  0.2660211242087270E-17   8   6   8   5
  0.1658666042468913E-01   8   6   8   6
  0.1165226814888067E+00   8   7   1   1
 -0.1391108668215476E-02   8   7   2   1
  0.7957506681435250E-01   8   7   2   2
 -0.2480790095918395E-16   8   7   3   1
 -0.2228035464457712E-16   8   7   3   2
  0.7792372547416349E-01   8   7   3   3
 -0.1067299785192599E-02   8   7   4   1
 -0.8878405679825153E-02   8   7   4   2
  0.5529431079676073E-16   8   7   4   3
  0.8167032561693177E-01   8   7   4   4
  0.3305254858221012E-18   8   7   5   1
 -0.7643458850209470E-17   8   7   5   2
  0.3110446658888880E-17   8   7   5   3
 -0.2985696234988137E-17   8   7   5   4
  0.7286438725240428E-01   8   7   5   5
  0.9936043324465758E-03   8   7   6   1
 -0.1066431961489173E-01   8   7   6   2
 -0.2602085213965211E-16   8   7   6   3
 -0.8797678183144125E-02   8   7   6   4
 -0.1584969078513338E-16   8   7   6   5
  0.2338295952803727E-01   8   7   6   6
  0.2236166980751353E-17   8   7   7   1
 -0.8760353553682876E-16   8   7   7   2
 -0.2228479310373425E-01   8   7   7   3
  0.2341876692568690E-15   8   7   7   4
  0.2256844549045117E-16   8   7   7   5
  0.2844946500601964E-15   8   7   7   6
  0.2718122687088234E-01   8   7   7   7
  0.1912261581721308E-16   8   7   8   1
 -0.4895172808772053E-16   8   7   8   2
  0.8428480682576091E-02   8   7   8   3
 -0.3785762935776260E-15   8   7   8   4
  0.1379998712619043E-16   8   7   8   5
 -0.3261280134836397E-15   8   7   8   6
  0.2376262781139826E-01   8   7   8   7
  0.5040429756482223E+00   8   8   1   1
  0.1718201670457692E-03   8   8   2   1
  0.5022457766337688E+00   8   8   2   2
 -0.7990570011218168E-16   8   8   3   1
 -0.8534839501805891E-15   8   8   3   2
  0.5143493968069922E+00   8   8   3   3
  0.2375318721779512E-02   8   8   4   1
  0.3090333960090277E-01   8   8   4   2
 -0.4041905699025961E-15   8   8   4   3
  0.4613922860976072E+00   8   8   4   4
 -0.1163140299143348E-17   8   8   5   1
 -0.4656012186809013E-16   8   8   5   2
  0.1264471777145286E-15   8   8   5   3
 -0.6914881661133369E-17   8   8   5   4
  0.4462522903191883E+00   8   8   5   5
 -0.9163189092822599E-03   8   8   6   1
 -0.2435815112383799E-01   8   8   6   2
 -0.4579669976578771E-15   8   8   6   3
 -0.1234846592147690E-01   8   8   6   4
 -0.4016145351342898E-16   8   8   6   5
  0.3551338012734613E+00   8   8   6   6
  0.2667137344314341E-16   8   8   7   1
 -0.3087807787238717E-15   8   8   7   2
 -0.3038053113188954E-01   8   8   7   3
 -0.3469446951953614E-16   8   8   7   4
  0.6144627508127769E-16   8   8   7   5
 -0.1054711873393899E-14   8   8   7   6
  0.3571591705308094E+00   8   8   7   7
 -0.2286988957586611E-17   8   8   8   1
 -0.8578207588705311E-15   8   8   8   2
  0.7748595817428444E-01   8   8   8   3
 -0.1421605888562993E-14   8   8   8   4
  0.9435668533162021E-16   8   8   8   5
 -0.3261280134836397E-15   8   8   8   6
  0.6124478274657486E-01   8   8   8   7
  0.5075736339189585E+00   8   8   8   8
  0.8125950135928962E-16   9   1   1   1
  0.1489496753679539E-17   9   1   2   1
  0.1409375463573996E-16   9   1   2   2
  0.4528784115982254E-16   9   1   3   1
  0.3709270514023018E-16   9   1   3   2
 -0.1368200919074735E-17   9   1   3   3
 -0.3754003938649283E-16   9   1   4   1
 -0.4026791887184761E-16   9   1   4   2
 -0.1111818854057644E-16   9   1   4   3
  0.2632888662056932E-16   9   1   4   4
 -0.3702837070860217E-01   9   1   5   1
 -0.3402541121525216E-01   9   1   5   2
  0.3786548431061456E-16   9   1   5   3
  0.1192807978198391E-01   9   1   5   4
 -0.1286587326525026E-16   9   1   5   5
  0.2298783318327031E-16   9   1   6   1
  0.1155117653119429E-16   9   1   6   2
 -0.1114090935469639E-16   9   1   6   3
  0.4897866602745174E-17   9   1   6   4
  0.1031398903292650E-01   9   1   6   5
 -0.1052284881003546E-16   9   1   6   6
 -0.2751046017710094E-16   9   1   7   1
 -0.1862755249090579E-16   9   1   7   2
 -0.1786642820611309E-17   9   1   7   3
  0.7555882880112509E-17   9   1   7   4
 -0.1190968489577835E-17   9   1   7   5
  0.7917755671855165E-17   9   1   7   6
  0.4653582660996899E-19   9   1   7   7
 -0.1396243354723108E-16   9   1   8   1
  0.3090002469211695E-18   9   1   8   2
 -0.4070391600529568E-17   9   1   8   3
  0.3447705912911887E-17   9   1   8   4
 -0.1294624438025282E-15   9   1   8   5
  0.2026920152634729E-17   9   1   8   6
  0.1044858633968705E-17   9   1   8   7
 -0.1464049969518743E-17   9   1   8   8
  0.4903701973423177E-01   9   1   9   1
  0.3011943374171811E-16   9   2   1   1
  0.4056596152880622E-17   9   2   2   1
  0.6280440288989524E-17   9   2   2   2
  0.1971500402447558E-16   9   2   3   1
  0.2672552859876821E-16   9   2   3   2
 -0.1490190711386706E-16   9   2   3   3
 -0.2138355455444899E-16   9   2   4   1
 -0.5199356700710928E-16   9   2   4   2
 -0.3714256895126842E-17   9   2   4   3
  0.1755327890328429E-16   9   2   4   4
 -0.1881650335884529E-01   9   2   5   1
 -0.3987388190860857E-01   9   2   5   2
  0.4807344496071073E-16   9   2   5   3
  0.1320257079075907E-01   9   2   5   4
 -0.6177524489823453E-17   9   2   5   5
  0.1041062059562009E-16   9   2   6   1
  0.2038856411967892E-16   9   2   6   2
 -0.2404594941478340E-16   9   2   6   3
  0.1643285563961698E-16   9   2   6   4
  0.1905622324282267E-01   9   2   6   5
 -0.1937911622330121E-16   9   2   6   6
 -0.1149477520943395E-16   9   2   7   1
 -0.1865895616167386E-16   9   2   7   2
  0.4002315406387835E-17   9   2   7   3
 -0.2285457314089915E-17   9   2   7   4
 -0.2863830815692157E-16   9   2   7   5