in init
3
 &FCI NORB= 72,NELEC=14,MS2= 0,

4
  ORBSYM=1,1,1,1,1,1,1,1,1,1,1,1,1,1,1,1,1,1,1,1,1,1,1,1,1,1,1,1,1,1,1,1,1,1,1,1,1,1,1,1,1,1,1,1,1,1,1,1,1,1,1,1,1,1,1,1,1,1,1,1,1,1,1,1,1,1,1,1,1,1,1,1,

5
  ISYM=0

6
 &END

found the Namelist
NORB= 72
read the namelist
found E_nucc
finished init
NELECd= 15 NELECs= 1 NELECe= 56 NORB= 72
ENERGY: -294.139790455 ITERATION: 1
ENERGY: -276.932354981 ITERATION: 1
ENERGY: -292.646398921 ITERATION: 2
ENERGY: -311.449998752 ITERATION: 2
ENERGY: -292.768178232 ITERATION: 3
ENERGY: -283.658243683 ITERATION: 3
ENERGY: -293.683870742 ITERATION: 4
ENERGY: -303.930837866 ITERATION: 4
ENERGY: -294.901217216 ITERATION: 5
ENERGY: -291.508672218 ITERATION: 5
ENERGY: -295.573135591 ITERATION: 6
ENERGY: -297.568364931 ITERATION: 6
ENERGY: -295.979650409 ITERATION: 7
ENERGY: -295.247286929 ITERATION: 7
ENERGY: -296.114626178 ITERATION: 8
ENERGY: -296.551853328 ITERATION: 8
ENERGY: -296.165354795 ITERATION: 9
ENERGY: -295.963528957 ITERATION: 9
ENERGY: -296.195729875 ITERATION: 10
ENERGY: -296.284580877 ITERATION: 10
ENERGY: -296.219321436 ITERATION: 11
ENERGY: -296.147751883 ITERATION: 11
ENERGY: -296.24010756 ITERATION: 12
ENERGY: -296.243938049 ITERATION: 12
ENERGY: -296.255885325 ITERATION: 13
ENERGY: -296.224973895 ITERATION: 13
ENERGY: -296.266644577 ITERATION: 14
ENERGY: -296.259805014 ITERATION: 14
ENERGY: -296.273422467 ITERATION: 15
ENERGY: -296.260585841 ITERATION: 15
ENERGY: -296.277558164 ITERATION: 16
ENERGY: -296.272431358 ITERATION: 16
ENERGY: -296.280046375 ITERATION: 17
ENERGY: -296.274404492 ITERATION: 17
ENERGY: -296.281539682 ITERATION: 18
ENERGY: -296.278461484 ITERATION: 18
ENERGY: -296.282438038 ITERATION: 19
ENERGY: -296.279697786 ITERATION: 19
ENERGY: -296.282980339 ITERATION: 20
ENERGY: -296.281201914 ITERATION: 20
ENERGY: -296.283309221 ITERATION: 21
ENERGY: -296.281864309 ITERATION: 21
ENERGY: -296.283509317 ITERATION: 22
ENERGY: -296.282484024 ITERATION: 22
ENERGY: -296.283631412 ITERATION: 23
ENERGY: -296.282828297 ITERATION: 23
ENERGY: -296.283705963 ITERATION: 24
ENERGY: -296.283110639 ITERATION: 24
ENERGY: -296.283751443 ITERATION: 25
ENERGY: -296.283290918 ITERATION: 25
ENERGY: -296.283779075 ITERATION: 26
ENERGY: -296.283430311 ITERATION: 26
ENERGY: -296.283795738 ITERATION: 27
ENERGY: -296.283526667 ITERATION: 27
ENERGY: -296.283805654 ITERATION: 28
ENERGY: -296.283599609 ITERATION: 28
ENERGY: -296.283811432 ITERATION: 29
ENERGY: -296.283652319 ITERATION: 29
ENERGY: -296.283814684 ITERATION: 30
ENERGY: -296.283692067 ITERATION: 30
ENERGY: -296.283816409 ITERATION: 31
ENERGY: -296.283721527 ITERATION: 31
ENERGY: -296.283817223 ITERATION: 32
ENERGY: -296.283743809 ITERATION: 32
ENERGY: -296.283817509 ITERATION: 33
ENERGY: -296.283760576 ITERATION: 33
ENERGY: -296.283817499 ITERATION: 34
ENERGY: -296.283773322 ITERATION: 34
ENERGY: -296.283817336 ITERATION: 35
ENERGY: -296.283783007 ITERATION: 35
ENERGY: -296.283817103 ITERATION: 36
ENERGY: -296.283790407 ITERATION: 36
ENERGY: -296.283816849 ITERATION: 37
ENERGY: -296.283796068 ITERATION: 37
ENERGY: -296.283816601 ITERATION: 38
ENERGY: -296.283800413 ITERATION: 38
ENERGY: -296.283816374 ITERATION: 39
ENERGY: -296.283803754 ITERATION: 39
ENERGY: -296.283816172 ITERATION: 40
ENERGY: -296.283806328 ITERATION: 40
ENERGY: -296.283815999 ITERATION: 41
ENERGY: -296.283808314 ITERATION: 41
ENERGY: -296.283815851 ITERATION: 42
ENERGY: -296.283809849 ITERATION: 42
ENERGY: -296.283815728 ITERATION: 43
ENERGY: -296.283811037 ITERATION: 43
ENERGY: -296.283815626 ITERATION: 44
ENERGY: -296.283811958 ITERATION: 44
ENERGY: -296.283815542 ITERATION: 45
ENERGY: -296.283812673 ITERATION: 45
ENERGY: -296.283815473 ITERATION: 46
ENERGY: -296.283813228 ITERATION: 46
ENERGY: -296.283815417 ITERATION: 47
ENERGY: -296.28381366 ITERATION: 47
ENERGY: -296.283815372 ITERATION: 48
ENERGY: -296.283813996 ITERATION: 48
ENERGY: -296.283815336 ITERATION: 49
ENERGY: -296.283814257 ITERATION: 49
ENERGY: -296.283815306 ITERATION: 50
ENERGY: -296.283814461 ITERATION: 50
ENERGY: -296.283815283 ITERATION: 51
ENERGY: -296.28381462 ITERATION: 51
ENERGY: -296.283815264 ITERATION: 52
ENERGY: -296.283814745 ITERATION: 52
ENERGY: -296.283815249 ITERATION: 53
ENERGY: -296.283814842 ITERATION: 53
finished calculating
skipped newFCIDUMP
