in init
3
 &FCI NORB= 72,NELEC=14,MS2= 0,

4
  ORBSYM=1,1,1,1,1,1,1,1,1,1,1,1,1,1,1,1,1,1,1,1,1,1,1,1,1,1,1,1,1,1,1,1,1,1,1,1,1,1,1,1,1,1,1,1,1,1,1,1,1,1,1,1,1,1,1,1,1,1,1,1,1,1,1,1,1,1,1,1,1,1,1,1,

5
  ISYM=0

6
 &END

found the Namelist
NORB= 72
read the namelist
found E_nucc
finished init
NELECd= 15 NELECs= 1 NELECe= 56 NORB= 72
ENERGY: -294.248113468 ITERATION: 1
ENERGY: -277.083657146 ITERATION: 1
ENERGY: -292.772740965 ITERATION: 2
ENERGY: -311.721806994 ITERATION: 2
ENERGY: -292.927969645 ITERATION: 3
ENERGY: -284.099504664 ITERATION: 3
ENERGY: -294.027464268 ITERATION: 4
ENERGY: -303.879433086 ITERATION: 4
ENERGY: -295.205380128 ITERATION: 5
ENERGY: -292.175353976 ITERATION: 5
ENERGY: -295.909125473 ITERATION: 6
ENERGY: -297.572869527 ITERATION: 6
ENERGY: -296.249252947 ITERATION: 7
ENERGY: -295.48939393 ITERATION: 7
ENERGY: -296.373627248 ITERATION: 8
ENERGY: -296.637597651 ITERATION: 8
ENERGY: -296.42746221 ITERATION: 9
ENERGY: -296.239670296 ITERATION: 9
ENERGY: -296.456762485 ITERATION: 10
ENERGY: -296.505220391 ITERATION: 10
ENERGY: -296.471671832 ITERATION: 11
ENERGY: -296.41983935 ITERATION: 11
ENERGY: -296.479795674 ITERATION: 12
ENERGY: -296.485277889 ITERATION: 12
ENERGY: -296.484235831 ITERATION: 13
ENERGY: -296.467828189 ITERATION: 13
ENERGY: -296.486762354 ITERATION: 14
ENERGY: -296.484995467 ITERATION: 14
ENERGY: -296.488230108 ITERATION: 15
ENERGY: -296.482139297 ITERATION: 15
ENERGY: -296.489098678 ITERATION: 16
ENERGY: -296.487051318 ITERATION: 16
ENERGY: -296.489620553 ITERATION: 17
ENERGY: -296.486979381 ITERATION: 17
ENERGY: -296.489936672 ITERATION: 18
ENERGY: -296.488558193 ITERATION: 18
ENERGY: -296.490129878 ITERATION: 19
ENERGY: -296.488837418 ITERATION: 19
ENERGY: -296.490248262 ITERATION: 20
ENERGY: -296.489420147 ITERATION: 20
ENERGY: -296.490321038 ITERATION: 21
ENERGY: -296.48963671 ITERATION: 21
ENERGY: -296.490365681 ITERATION: 22
ENERGY: -296.489882892 ITERATION: 22
ENERGY: -296.490392987 ITERATION: 23
ENERGY: -296.490013077 ITERATION: 23
ENERGY: -296.490409547 ITERATION: 24
ENERGY: -296.490129056 ITERATION: 24
ENERGY: -296.49041947 ITERATION: 25
ENERGY: -296.490202459 ITERATION: 25
ENERGY: -296.490425293 ITERATION: 26
ENERGY: -296.49026147 ITERATION: 26
ENERGY: -296.490428605 ITERATION: 27
ENERGY: -296.490302387 ITERATION: 27
ENERGY: -296.49043039 ITERATION: 28
ENERGY: -296.490333988 ITERATION: 28
ENERGY: -296.490431262 ITERATION: 29
ENERGY: -296.490356948 ITERATION: 29
ENERGY: -296.4904316 ITERATION: 30
ENERGY: -296.490374457 ITERATION: 30
ENERGY: -296.490431637 ITERATION: 31
ENERGY: -296.490387497 ITERATION: 31
ENERGY: -296.490431515 ITERATION: 32
ENERGY: -296.490397428 ITERATION: 32
ENERGY: -296.490431319 ITERATION: 33
ENERGY: -296.490404928 ITERATION: 33
ENERGY: -296.490431098 ITERATION: 34
ENERGY: -296.490410655 ITERATION: 34
ENERGY: -296.49043088 ITERATION: 35
ENERGY: -296.490415019 ITERATION: 35
ENERGY: -296.490430677 ITERATION: 36
ENERGY: -296.490418363 ITERATION: 36
ENERGY: -296.490430498 ITERATION: 37
ENERGY: -296.490420927 ITERATION: 37
ENERGY: -296.490430343 ITERATION: 38
ENERGY: -296.490422898 ITERATION: 38
ENERGY: -296.490430211 ITERATION: 39
ENERGY: -296.490424416 ITERATION: 39
ENERGY: -296.490430102 ITERATION: 40
ENERGY: -296.490425587 ITERATION: 40
ENERGY: -296.490430011 ITERATION: 41
ENERGY: -296.490426492 ITERATION: 41
ENERGY: -296.490429937 ITERATION: 42
ENERGY: -296.490427192 ITERATION: 42
ENERGY: -296.490429876 ITERATION: 43
ENERGY: -296.490427734 ITERATION: 43
ENERGY: -296.490429827 ITERATION: 44
ENERGY: -296.490428155 ITERATION: 44
ENERGY: -296.490429787 ITERATION: 45
ENERGY: -296.490428481 ITERATION: 45
ENERGY: -296.490429755 ITERATION: 46
ENERGY: -296.490428735 ITERATION: 46
ENERGY: -296.49042973 ITERATION: 47
ENERGY: -296.490428932 ITERATION: 47
ENERGY: -296.490429709 ITERATION: 48
ENERGY: -296.490429085 ITERATION: 48
ENERGY: -296.490429693 ITERATION: 49
ENERGY: -296.490429205 ITERATION: 49
ENERGY: -296.49042968 ITERATION: 50
ENERGY: -296.490429298 ITERATION: 50
finished calculating
skipped newFCIDUMP
