in init
3
 &FCI NORB= 72,NELEC=14,MS2= 0,

4
  ORBSYM=1,1,1,1,1,1,1,1,1,1,1,1,1,1,1,1,1,1,1,1,1,1,1,1,1,1,1,1,1,1,1,1,1,1,1,1,1,1,1,1,1,1,1,1,1,1,1,1,1,1,1,1,1,1,1,1,1,1,1,1,1,1,1,1,1,1,1,1,1,1,1,1,

5
  ISYM=0

6
 &END

found the Namelist
NORB= 72
read the namelist
found E_nucc
finished init
NELECd= 15 NELECs= 1 NELECe= 56 NORB= 72
ENERGY: -294.780320747 ITERATION: 1
ENERGY: -278.066552956 ITERATION: 1
ENERGY: -293.344415513 ITERATION: 2
ENERGY: -311.586200869 ITERATION: 2
ENERGY: -293.97910468 ITERATION: 3
ENERGY: -286.965260962 ITERATION: 3
ENERGY: -295.705774984 ITERATION: 4
ENERGY: -301.866723711 ITERATION: 4
ENERGY: -296.850946297 ITERATION: 5
ENERGY: -295.884768689 ITERATION: 5
ENERGY: -297.16631034 ITERATION: 6
ENERGY: -297.675691742 ITERATION: 6
ENERGY: -297.202690997 ITERATION: 7
ENERGY: -296.987226848 ITERATION: 7
ENERGY: -297.215089456 ITERATION: 8
ENERGY: -297.251325165 ITERATION: 8
ENERGY: -297.219170264 ITERATION: 9
ENERGY: -297.154166926 ITERATION: 9
ENERGY: -297.222906156 ITERATION: 10
ENERGY: -297.193443692 ITERATION: 10
ENERGY: -297.226252151 ITERATION: 11
ENERGY: -297.179773112 ITERATION: 11
ENERGY: -297.230027472 ITERATION: 12
ENERGY: -297.188662796 ITERATION: 12
ENERGY: -297.2342557 ITERATION: 13
ENERGY: -297.191729178 ITERATION: 13
ENERGY: -297.238963604 ITERATION: 14
ENERGY: -297.201315032 ITERATION: 14
ENERGY: -297.243970167 ITERATION: 15
ENERGY: -297.211987418 ITERATION: 15
ENERGY: -297.249002256 ITERATION: 16
ENERGY: -297.224370564 ITERATION: 16
ENERGY: -297.25374779 ITERATION: 17
ENERGY: -297.235963451 ITERATION: 17
ENERGY: -297.257947635 ITERATION: 18
ENERGY: -297.246023893 ITERATION: 18
ENERGY: -297.261439093 ITERATION: 19
ENERGY: -297.253910908 ITERATION: 19
ENERGY: -297.264166923 ITERATION: 20
ENERGY: -297.25974784 ITERATION: 20
ENERGY: -297.266173902 ITERATION: 21
ENERGY: -297.263805693 ITERATION: 21
ENERGY: -297.267573947 ITERATION: 22
ENERGY: -297.266503896 ITERATION: 22
ENERGY: -297.268510607 ITERATION: 23
ENERGY: -297.268215168 ITERATION: 23
ENERGY: -297.269119644 ITERATION: 24
ENERGY: -297.269257919 ITERATION: 24
ENERGY: -297.269509287 ITERATION: 25
ENERGY: -297.269863284 ITERATION: 25
ENERGY: -297.269756938 ITERATION: 26
ENERGY: -297.270195137 ITERATION: 26
ENERGY: -297.269914348 ITERATION: 27
ENERGY: -297.270360784 ITERATION: 27
ENERGY: -297.2700148 ITERATION: 28
ENERGY: -297.270429669 ITERATION: 28
ENERGY: -297.270079281 ITERATION: 29
ENERGY: -297.270444569 ITERATION: 29
ENERGY: -297.270120937 ITERATION: 30
ENERGY: -297.27043154 ITERATION: 30
ENERGY: -297.270148012 ITERATION: 31
ENERGY: -297.270405761 ITERATION: 31
ENERGY: -297.270165701 ITERATION: 32
ENERGY: -297.270375853 ITERATION: 32
ENERGY: -297.270177307 ITERATION: 33
ENERGY: -297.270346391 ITERATION: 33
ENERGY: -297.270184945 ITERATION: 34
ENERGY: -297.270319606 ITERATION: 34
ENERGY: -297.270189981 ITERATION: 35
ENERGY: -297.270296368 ITERATION: 35
ENERGY: -297.270193303 ITERATION: 36
ENERGY: -297.270276817 ITERATION: 36
ENERGY: -297.270195495 ITERATION: 37
ENERGY: -297.270260711 ITERATION: 37
ENERGY: -297.270196937 ITERATION: 38
ENERGY: -297.270247647 ITERATION: 38
ENERGY: -297.270197884 ITERATION: 39
ENERGY: -297.270237174 ITERATION: 39
ENERGY: -297.270198503 ITERATION: 40
ENERGY: -297.270228852 ITERATION: 40
ENERGY: -297.270198905 ITERATION: 41
ENERGY: -297.270222288 ITERATION: 41
ENERGY: -297.270199164 ITERATION: 42
ENERGY: -297.27021714 ITERATION: 42
ENERGY: -297.270199328 ITERATION: 43
ENERGY: -297.270213122 ITERATION: 43
ENERGY: -297.270199431 ITERATION: 44
ENERGY: -297.270209997 ITERATION: 44
ENERGY: -297.270199495 ITERATION: 45
ENERGY: -297.270207577 ITERATION: 45
ENERGY: -297.270199532 ITERATION: 46
ENERGY: -297.270205706 ITERATION: 46
ENERGY: -297.270199554 ITERATION: 47
ENERGY: -297.270204264 ITERATION: 47
ENERGY: -297.270199565 ITERATION: 48
ENERGY: -297.270203155 ITERATION: 48
ENERGY: -297.27019957 ITERATION: 49
ENERGY: -297.270202304 ITERATION: 49
ENERGY: -297.270199572 ITERATION: 50
ENERGY: -297.270201652 ITERATION: 50
ENERGY: -297.270199571 ITERATION: 51
ENERGY: -297.270201152 ITERATION: 51
ENERGY: -297.270199569 ITERATION: 52
ENERGY: -297.270200771 ITERATION: 52
ENERGY: -297.270199567 ITERATION: 53
ENERGY: -297.270200479 ITERATION: 53
ENERGY: -297.270199565 ITERATION: 54
ENERGY: -297.270200257 ITERATION: 54
ENERGY: -297.270199563 ITERATION: 55
ENERGY: -297.270200088 ITERATION: 55
ENERGY: -297.270199561 ITERATION: 56
ENERGY: -297.270199959 ITERATION: 56
ENERGY: -297.270199559 ITERATION: 57
ENERGY: -297.270199861 ITERATION: 57
finished calculating
skipped newFCIDUMP
