in init
3
 &FCI NORB= 72,NELEC=14,MS2= 0,

4
  ORBSYM=1,1,1,1,1,1,1,1,1,1,1,1,1,1,1,1,1,1,1,1,1,1,1,1,1,1,1,1,1,1,1,1,1,1,1,1,1,1,1,1,1,1,1,1,1,1,1,1,1,1,1,1,1,1,1,1,1,1,1,1,1,1,1,1,1,1,1,1,1,1,1,1,

5
  ISYM=0

6
 &END

found the Namelist
NORB= 72
read the namelist
found E_nucc
finished init
NELECd= 15 NELECs= 1 NELECe= 56 NORB= 72
ENERGY: -293.568228493 ITERATION: 1
ENERGY: -269.64836754 ITERATION: 1
ENERGY: -290.74729932 ITERATION: 2
ENERGY: -324.204914768 ITERATION: 2
ENERGY: -289.135311816 ITERATION: 3
ENERGY: -271.65598995 ITERATION: 3
ENERGY: -287.495606639 ITERATION: 4
ENERGY: -331.484729485 ITERATION: 4
ENERGY: -280.611967672 ITERATION: 5
ENERGY: -267.499755713 ITERATION: 5
ENERGY: -283.671311652 ITERATION: 6
ENERGY: -339.741755303 ITERATION: 6
ENERGY: -268.959599197 ITERATION: 7
ENERGY: -262.969028293 ITERATION: 7
ENERGY: -276.887228201 ITERATION: 8
ENERGY: -351.051391755 ITERATION: 8
ENERGY: -236.058325481 ITERATION: 9
ENERGY: -261.856240732 ITERATION: 9
ENERGY: -272.157400846 ITERATION: 10
ENERGY: -354.171395257 ITERATION: 10
ENERGY: -227.724996661 ITERATION: 11
ENERGY: -262.218311376 ITERATION: 11
ENERGY: -271.609930507 ITERATION: 12
ENERGY: -354.149030285 ITERATION: 12
ENERGY: -226.664246101 ITERATION: 13
ENERGY: -262.358984588 ITERATION: 13
ENERGY: -271.540303415 ITERATION: 14
ENERGY: -354.099917078 ITERATION: 14
ENERGY: -226.461158794 ITERATION: 15
ENERGY: -262.399453898 ITERATION: 15
ENERGY: -271.528216253 ITERATION: 16
ENERGY: -354.084114144 ITERATION: 16
ENERGY: -226.418118274 ITERATION: 17
ENERGY: -262.409625041 ITERATION: 17
ENERGY: -271.526119129 ITERATION: 18
ENERGY: -354.079908585 ITERATION: 18
ENERGY: -226.408934684 ITERATION: 19
ENERGY: -262.412001679 ITERATION: 19
ENERGY: -271.525770101 ITERATION: 20
ENERGY: -354.078890744 ITERATION: 20
ENERGY: -226.406949728 ITERATION: 21
ENERGY: -262.412543127 ITERATION: 21
ENERGY: -271.525706124 ITERATION: 22
ENERGY: -354.07865555 ITERATION: 22
ENERGY: -226.406509038 ITERATION: 23
ENERGY: -262.412666126 ITERATION: 23
ENERGY: -271.525692553 ITERATION: 24
ENERGY: -354.078601981 ITERATION: 24
ENERGY: -226.406409298 ITERATION: 25
ENERGY: -262.412694144 ITERATION: 25
ENERGY: -271.525689467 ITERATION: 26
ENERGY: -354.078589785 ITERATION: 26
ENERGY: -226.406386588 ITERATION: 27
ENERGY: -262.412700531 ITERATION: 27
ENERGY: -271.525688763 ITERATION: 28
ENERGY: -354.078587005 ITERATION: 28
ENERGY: -226.406381419 ITERATION: 29
ENERGY: -262.412701986 ITERATION: 29
ENERGY: -271.525688603 ITERATION: 30
ENERGY: -354.078586371 ITERATION: 30
ENERGY: -226.406380243 ITERATION: 31
ENERGY: -262.412702317 ITERATION: 31
ENERGY: -271.525688567 ITERATION: 32
ENERGY: -354.078586227 ITERATION: 32
ENERGY: -226.406379976 ITERATION: 33
ENERGY: -262.412702392 ITERATION: 33
ENERGY: -271.525688559 ITERATION: 34
ENERGY: -354.078586194 ITERATION: 34
ENERGY: -226.406379915 ITERATION: 35
ENERGY: -262.41270241 ITERATION: 35
ENERGY: -271.525688557 ITERATION: 36
ENERGY: -354.078586186 ITERATION: 36
ENERGY: -226.406379901 ITERATION: 37
ENERGY: -262.412702413 ITERATION: 37
ENERGY: -271.525688557 ITERATION: 38
ENERGY: -354.078586185 ITERATION: 38
ENERGY: -226.406379898 ITERATION: 39
ENERGY: -262.412702414 ITERATION: 39
ENERGY: -271.525688557 ITERATION: 40
ENERGY: -354.078586184 ITERATION: 40
ENERGY: -226.406379898 ITERATION: 41
ENERGY: -262.412702415 ITERATION: 41
ENERGY: -271.525688557 ITERATION: 42
ENERGY: -354.078586184 ITERATION: 42
ENERGY: -226.406379897 ITERATION: 43
ENERGY: -262.412702415 ITERATION: 43
ENERGY: -271.525688557 ITERATION: 44
ENERGY: -354.078586184 ITERATION: 44
ENERGY: -226.406379897 ITERATION: 45
ENERGY: -262.412702415 ITERATION: 45
ENERGY: -271.525688557 ITERATION: 46
ENERGY: -354.078586184 ITERATION: 46
ENERGY: -226.406379897 ITERATION: 47
ENERGY: -262.412702415 ITERATION: 47
ENERGY: -271.525688557 ITERATION: 48
ENERGY: -354.078586184 ITERATION: 48
ENERGY: -226.406379897 ITERATION: 49
ENERGY: -262.412702415 ITERATION: 49
ENERGY: -271.525688557 ITERATION: 50
ENERGY: -354.078586184 ITERATION: 50
ENERGY: -226.406379897 ITERATION: 51
ENERGY: -262.412702415 ITERATION: 51
ENERGY: -271.525688557 ITERATION: 52
ENERGY: -354.078586184 ITERATION: 52
ENERGY: -226.406379897 ITERATION: 53
ENERGY: -262.412702415 ITERATION: 53
ENERGY: -271.525688557 ITERATION: 54
ENERGY: -354.078586184 ITERATION: 54
ENERGY: -226.406379897 ITERATION: 55
ENERGY: -262.412702415 ITERATION: 55
ENERGY: -271.525688557 ITERATION: 56
ENERGY: -354.078586184 ITERATION: 56
ENERGY: -226.406379897 ITERATION: 57
ENERGY: -262.412702415 ITERATION: 57
ENERGY: -271.525688557 ITERATION: 58
ENERGY: -354.078586184 ITERATION: 58
ENERGY: -226.406379897 ITERATION: 59
ENERGY: -262.412702415 ITERATION: 59
ENERGY: -271.525688557 ITERATION: 60
ENERGY: -354.078586184 ITERATION: 60
ENERGY: -226.406379897 ITERATION: 61
ENERGY: -262.412702415 ITERATION: 61
ENERGY: -271.525688557 ITERATION: 62
ENERGY: -354.078586184 ITERATION: 62
ENERGY: -226.406379897 ITERATION: 63
ENERGY: -262.412702415 ITERATION: 63
ENERGY: -271.525688557 ITERATION: 64
ENERGY: -354.078586184 ITERATION: 64
ENERGY: -226.406379897 ITERATION: 65
ENERGY: -262.412702415 ITERATION: 65
ENERGY: -271.525688557 ITERATION: 66
ENERGY: -354.078586184 ITERATION: 66
ENERGY: -226.406379897 ITERATION: 67
ENERGY: -262.412702415 ITERATION: 67
ENERGY: -271.525688557 ITERATION: 68
ENERGY: -354.078586184 ITERATION: 68
ENERGY: -226.406379897 ITERATION: 69
ENERGY: -262.412702415 ITERATION: 69
ENERGY: -271.525688557 ITERATION: 70
ENERGY: -354.078586184 ITERATION: 70
ENERGY: -226.406379897 ITERATION: 71
ENERGY: -262.412702415 ITERATION: 71
ENERGY: -271.525688557 ITERATION: 72
ENERGY: -354.078586184 ITERATION: 72
ENERGY: -226.406379897 ITERATION: 73
ENERGY: -262.412702415 ITERATION: 73
ENERGY: -271.525688557 ITERATION: 74
ENERGY: -354.078586184 ITERATION: 74
ENERGY: -226.406379897 ITERATION: 75
ENERGY: -262.412702415 ITERATION: 75
ENERGY: -271.525688557 ITERATION: 76
ENERGY: -354.078586184 ITERATION: 76
ENERGY: -226.406379897 ITERATION: 77
ENERGY: -262.412702415 ITERATION: 77
ENERGY: -271.525688557 ITERATION: 78
ENERGY: -354.078586184 ITERATION: 78
ENERGY: -226.406379897 ITERATION: 79
ENERGY: -262.412702415 ITERATION: 79
ENERGY: -271.525688557 ITERATION: 80
ENERGY: -354.078586184 ITERATION: 80
ENERGY: -226.406379897 ITERATION: 81
ENERGY: -262.412702415 ITERATION: 81
ENERGY: -271.525688557 ITERATION: 82
ENERGY: -354.078586184 ITERATION: 82
ENERGY: -226.406379897 ITERATION: 83
ENERGY: -262.412702415 ITERATION: 83
ENERGY: -271.525688557 ITERATION: 84
ENERGY: -354.078586184 ITERATION: 84
ENERGY: -226.406379897 ITERATION: 85
ENERGY: -262.412702415 ITERATION: 85
ENERGY: -271.525688557 ITERATION: 86
ENERGY: -354.078586184 ITERATION: 86
ENERGY: -226.406379897 ITERATION: 87
ENERGY: -262.412702415 ITERATION: 87
ENERGY: -271.525688557 ITERATION: 88
ENERGY: -354.078586184 ITERATION: 88
ENERGY: -226.406379897 ITERATION: 89
ENERGY: -262.412702415 ITERATION: 89
ENERGY: -271.525688557 ITERATION: 90
ENERGY: -354.078586184 ITERATION: 90
ENERGY: -226.406379897 ITERATION: 91
ENERGY: -262.412702415 ITERATION: 91
ENERGY: -271.525688557 ITERATION: 92
ENERGY: -354.078586184 ITERATION: 92
ENERGY: -226.406379897 ITERATION: 93
ENERGY: -262.412702415 ITERATION: 93
ENERGY: -271.525688557 ITERATION: 94
ENERGY: -354.078586184 ITERATION: 94
ENERGY: -226.406379897 ITERATION: 95
ENERGY: -262.412702415 ITERATION: 95
ENERGY: -271.525688557 ITERATION: 96
ENERGY: -354.078586184 ITERATION: 96
ENERGY: -226.406379897 ITERATION: 97
ENERGY: -262.412702415 ITERATION: 97
ENERGY: -271.525688557 ITERATION: 98
ENERGY: -354.078586184 ITERATION: 98
ENERGY: -226.406379897 ITERATION: 99
ENERGY: -262.412702415 ITERATION: 99
ENERGY: -271.525688557 ITERATION: 100
ENERGY: -354.078586184 ITERATION: 100
ENERGY: -226.406379897 ITERATION: 101
ENERGY: -262.412702415 ITERATION: 101
ENERGY: -271.525688557 ITERATION: 102
ENERGY: -354.078586184 ITERATION: 102
ENERGY: -226.406379897 ITERATION: 103
ENERGY: -262.412702415 ITERATION: 103
ENERGY: -271.525688557 ITERATION: 104
ENERGY: -354.078586184 ITERATION: 104
ENERGY: -226.406379897 ITERATION: 105
ENERGY: -262.412702415 ITERATION: 105
ENERGY: -271.525688557 ITERATION: 106
ENERGY: -354.078586184 ITERATION: 106
ENERGY: -226.406379897 ITERATION: 107
ENERGY: -262.412702415 ITERATION: 107
ENERGY: -271.525688557 ITERATION: 108
ENERGY: -354.078586184 ITERATION: 108
ENERGY: -226.406379897 ITERATION: 109
ENERGY: -262.412702415 ITERATION: 109
ENERGY: -271.525688557 ITERATION: 110
ENERGY: -354.078586184 ITERATION: 110
ENERGY: -226.406379897 ITERATION: 111
ENERGY: -262.412702415 ITERATION: 111
ENERGY: -271.525688557 ITERATION: 112
ENERGY: -354.078586184 ITERATION: 112
ENERGY: -226.406379897 ITERATION: 113
ENERGY: -262.412702415 ITERATION: 113
ENERGY: -271.525688557 ITERATION: 114
ENERGY: -354.078586184 ITERATION: 114
ENERGY: -226.406379897 ITERATION: 115
ENERGY: -262.412702415 ITERATION: 115
ENERGY: -271.525688557 ITERATION: 116
ENERGY: -354.078586184 ITERATION: 116
ENERGY: -226.406379897 ITERATION: 117
ENERGY: -262.412702415 ITERATION: 117
ENERGY: -271.525688557 ITERATION: 118
ENERGY: -354.078586184 ITERATION: 118
ENERGY: -226.406379897 ITERATION: 119
ENERGY: -262.412702415 ITERATION: 119
ENERGY: -271.525688557 ITERATION: 120
ENERGY: -354.078586184 ITERATION: 120
ENERGY: -226.406379897 ITERATION: 121
ENERGY: -262.412702415 ITERATION: 121
ENERGY: -271.525688557 ITERATION: 122
ENERGY: -354.078586184 ITERATION: 122
ENERGY: -226.406379897 ITERATION: 123
ENERGY: -262.412702415 ITERATION: 123
ENERGY: -271.525688557 ITERATION: 124
ENERGY: -354.078586184 ITERATION: 124
ENERGY: -226.406379897 ITERATION: 125
ENERGY: -262.412702415 ITERATION: 125
ENERGY: -271.525688557 ITERATION: 126
ENERGY: -354.078586184 ITERATION: 126
ENERGY: -226.406379897 ITERATION: 127
ENERGY: -262.412702415 ITERATION: 127
ENERGY: -271.525688557 ITERATION: 128
ENERGY: -354.078586184 ITERATION: 128
ENERGY: -226.406379897 ITERATION: 129
ENERGY: -262.412702415 ITERATION: 129
ENERGY: -271.525688557 ITERATION: 130
ENERGY: -354.078586184 ITERATION: 130
ENERGY: -226.406379897 ITERATION: 131
ENERGY: -262.412702415 ITERATION: 131
ENERGY: -271.525688557 ITERATION: 132
ENERGY: -354.078586184 ITERATION: 132
ENERGY: -226.406379897 ITERATION: 133
ENERGY: -262.412702415 ITERATION: 133
ENERGY: -271.525688557 ITERATION: 134
ENERGY: -354.078586184 ITERATION: 134
ENERGY: -226.406379897 ITERATION: 135
ENERGY: -262.412702415 ITERATION: 135
ENERGY: -271.525688557 ITERATION: 136
ENERGY: -354.078586184 ITERATION: 136
ENERGY: -226.406379897 ITERATION: 137
ENERGY: -262.412702415 ITERATION: 137
ENERGY: -271.525688557 ITERATION: 138
ENERGY: -354.078586184 ITERATION: 138
ENERGY: -226.406379897 ITERATION: 139
ENERGY: -262.412702415 ITERATION: 139
ENERGY: -271.525688557 ITERATION: 140
ENERGY: -354.078586184 ITERATION: 140
ENERGY: -226.406379897 ITERATION: 141
ENERGY: -262.412702415 ITERATION: 141
ENERGY: -271.525688557 ITERATION: 142
ENERGY: -354.078586184 ITERATION: 142
ENERGY: -226.406379897 ITERATION: 143
ENERGY: -262.412702415 ITERATION: 143
ENERGY: -271.525688557 ITERATION: 144
ENERGY: -354.078586184 ITERATION: 144
ENERGY: -226.406379897 ITERATION: 145
ENERGY: -262.412702415 ITERATION: 145
ENERGY: -271.525688557 ITERATION: 146
ENERGY: -354.078586184 ITERATION: 146
ENERGY: -226.406379897 ITERATION: 147
ENERGY: -262.412702415 ITERATION: 147
ENERGY: -271.525688557 ITERATION: 148
ENERGY: -354.078586184 ITERATION: 148
ENERGY: -226.406379897 ITERATION: 149
ENERGY: -262.412702415 ITERATION: 149
ENERGY: -271.525688557 ITERATION: 150
ENERGY: -354.078586184 ITERATION: 150
ENERGY: -226.406379897 ITERATION: 151
ENERGY: -262.412702415 ITERATION: 151
ENERGY: -271.525688557 ITERATION: 152
ENERGY: -354.078586184 ITERATION: 152
ENERGY: -226.406379897 ITERATION: 153
ENERGY: -262.412702415 ITERATION: 153
ENERGY: -271.525688557 ITERATION: 154
ENERGY: -354.078586184 ITERATION: 154
ENERGY: -226.406379897 ITERATION: 155
ENERGY: -262.412702415 ITERATION: 155
ENERGY: -271.525688557 ITERATION: 156
ENERGY: -354.078586184 ITERATION: 156
ENERGY: -226.406379897 ITERATION: 157
ENERGY: -262.412702415 ITERATION: 157
ENERGY: -271.525688557 ITERATION: 158
ENERGY: -354.078586184 ITERATION: 158
ENERGY: -226.406379897 ITERATION: 159
ENERGY: -262.412702415 ITERATION: 159
ENERGY: -271.525688557 ITERATION: 160
ENERGY: -354.078586184 ITERATION: 160
ENERGY: -226.406379897 ITERATION: 161
ENERGY: -262.412702415 ITERATION: 161
ENERGY: -271.525688557 ITERATION: 162
ENERGY: -354.078586184 ITERATION: 162
ENERGY: -226.406379897 ITERATION: 163
ENERGY: -262.412702415 ITERATION: 163
ENERGY: -271.525688557 ITERATION: 164
ENERGY: -354.078586184 ITERATION: 164
ENERGY: -226.406379897 ITERATION: 165
ENERGY: -262.412702415 ITERATION: 165
ENERGY: -271.525688557 ITERATION: 166
ENERGY: -354.078586184 ITERATION: 166
ENERGY: -226.406379897 ITERATION: 167
ENERGY: -262.412702415 ITERATION: 167
ENERGY: -271.525688557 ITERATION: 168
ENERGY: -354.078586184 ITERATION: 168
ENERGY: -226.406379897 ITERATION: 169
ENERGY: -262.412702415 ITERATION: 169
ENERGY: -271.525688557 ITERATION: 170
ENERGY: -354.078586184 ITERATION: 170
ENERGY: -226.406379897 ITERATION: 171
ENERGY: -262.412702415 ITERATION: 171
ENERGY: -271.525688557 ITERATION: 172
ENERGY: -354.078586184 ITERATION: 172
ENERGY: -226.406379897 ITERATION: 173
ENERGY: -262.412702415 ITERATION: 173
ENERGY: -271.525688557 ITERATION: 174
ENERGY: -354.078586184 ITERATION: 174
ENERGY: -226.406379897 ITERATION: 175
ENERGY: -262.412702415 ITERATION: 175
ENERGY: -271.525688557 ITERATION: 176
ENERGY: -354.078586184 ITERATION: 176
ENERGY: -226.406379897 ITERATION: 177
ENERGY: -262.412702415 ITERATION: 177
ENERGY: -271.525688557 ITERATION: 178
ENERGY: -354.078586184 ITERATION: 178
ENERGY: -226.406379897 ITERATION: 179
ENERGY: -262.412702415 ITERATION: 179
ENERGY: -271.525688557 ITERATION: 180
ENERGY: -354.078586184 ITERATION: 180
ENERGY: -226.406379897 ITERATION: 181
ENERGY: -262.412702415 ITERATION: 181
ENERGY: -271.525688557 ITERATION: 182
ENERGY: -354.078586184 ITERATION: 182
ENERGY: -226.406379897 ITERATION: 183
ENERGY: -262.412702415 ITERATION: 183
ENERGY: -271.525688557 ITERATION: 184
ENERGY: -354.078586184 ITERATION: 184
ENERGY: -226.406379897 ITERATION: 185
ENERGY: -262.412702415 ITERATION: 185
ENERGY: -271.525688557 ITERATION: 186
ENERGY: -354.078586184 ITERATION: 186
ENERGY: -226.406379897 ITERATION: 187
ENERGY: -262.412702415 ITERATION: 187
ENERGY: -271.525688557 ITERATION: 188
ENERGY: -354.078586184 ITERATION: 188
ENERGY: -226.406379897 ITERATION: 189
ENERGY: -262.412702415 ITERATION: 189
ENERGY: -271.525688557 ITERATION: 190
ENERGY: -354.078586184 ITERATION: 190
ENERGY: -226.406379897 ITERATION: 191
ENERGY: -262.412702415 ITERATION: 191
ENERGY: -271.525688557 ITERATION: 192
ENERGY: -354.078586184 ITERATION: 192
ENERGY: -226.406379897 ITERATION: 193
ENERGY: -262.412702415 ITERATION: 193
ENERGY: -271.525688557 ITERATION: 194
ENERGY: -354.078586184 ITERATION: 194
ENERGY: -226.406379897 ITERATION: 195
ENERGY: -262.412702415 ITERATION: 195
ENERGY: -271.525688557 ITERATION: 196
ENERGY: -354.078586184 ITERATION: 196
ENERGY: -226.406379897 ITERATION: 197
ENERGY: -262.412702415 ITERATION: 197
ENERGY: -271.525688557 ITERATION: 198
ENERGY: -354.078586184 ITERATION: 198
ENERGY: -226.406379897 ITERATION: 199
ENERGY: -262.412702415 ITERATION: 199
ENERGY: -271.525688557 ITERATION: 200
ENERGY: -354.078586184 ITERATION: 200
ENERGY: -226.406379897 ITERATION: 201
ENERGY: -262.412702415 ITERATION: 201
ENERGY: -271.525688557 ITERATION: 202
ENERGY: -354.078586184 ITERATION: 202
ENERGY: -226.406379897 ITERATION: 203
ENERGY: -262.412702415 ITERATION: 203
ENERGY: -271.525688557 ITERATION: 204
ENERGY: -354.078586184 ITERATION: 204
ENERGY: -226.406379897 ITERATION: 205
ENERGY: -262.412702415 ITERATION: 205
ENERGY: -271.525688557 ITERATION: 206
ENERGY: -354.078586184 ITERATION: 206
ENERGY: -226.406379897 ITERATION: 207
ENERGY: -262.412702415 ITERATION: 207
ENERGY: -271.525688557 ITERATION: 208
ENERGY: -354.078586184 ITERATION: 208
ENERGY: -226.406379897 ITERATION: 209
ENERGY: -262.412702415 ITERATION: 209
ENERGY: -271.525688557 ITERATION: 210
ENERGY: -354.078586184 ITERATION: 210
ENERGY: -226.406379897 ITERATION: 211
ENERGY: -262.412702415 ITERATION: 211
ENERGY: -271.525688557 ITERATION: 212
ENERGY: -354.078586184 ITERATION: 212
ENERGY: -226.406379897 ITERATION: 213
ENERGY: -262.412702415 ITERATION: 213
ENERGY: -271.525688557 ITERATION: 214
ENERGY: -354.078586184 ITERATION: 214
ENERGY: -226.406379897 ITERATION: 215
ENERGY: -262.412702415 ITERATION: 215
ENERGY: -271.525688557 ITERATION: 216
ENERGY: -354.078586184 ITERATION: 216
ENERGY: -226.406379897 ITERATION: 217
ENERGY: -262.412702415 ITERATION: 217
ENERGY: -271.525688557 ITERATION: 218
ENERGY: -354.078586184 ITERATION: 218
ENERGY: -226.406379897 ITERATION: 219
ENERGY: -262.412702415 ITERATION: 219
ENERGY: -271.525688557 ITERATION: 220
ENERGY: -354.078586184 ITERATION: 220
ENERGY: -226.406379897 ITERATION: 221
ENERGY: -262.412702415 ITERATION: 221
ENERGY: -271.525688557 ITERATION: 222
ENERGY: -354.078586184 ITERATION: 222
ENERGY: -226.406379897 ITERATION: 223
ENERGY: -262.412702415 ITERATION: 223
ENERGY: -271.525688557 ITERATION: 224
ENERGY: -354.078586184 ITERATION: 224
ENERGY: -226.406379897 ITERATION: 225
ENERGY: -262.412702415 ITERATION: 225
ENERGY: -271.525688557 ITERATION: 226
ENERGY: -354.078586184 ITERATION: 226
ENERGY: -226.406379897 ITERATION: 227
ENERGY: -262.412702415 ITERATION: 227
ENERGY: -271.525688557 ITERATION: 228
ENERGY: -354.078586184 ITERATION: 228
ENERGY: -226.406379897 ITERATION: 229
ENERGY: -262.412702415 ITERATION: 229
ENERGY: -271.525688557 ITERATION: 230
ENERGY: -354.078586184 ITERATION: 230
ENERGY: -226.406379897 ITERATION: 231
ENERGY: -262.412702415 ITERATION: 231
ENERGY: -271.525688557 ITERATION: 232
ENERGY: -354.078586184 ITERATION: 232
ENERGY: -226.406379897 ITERATION: 233
ENERGY: -262.412702415 ITERATION: 233
ENERGY: -271.525688557 ITERATION: 234
ENERGY: -354.078586184 ITERATION: 234
ENERGY: -226.406379897 ITERATION: 235
ENERGY: -262.412702415 ITERATION: 235
ENERGY: -271.525688557 ITERATION: 236
ENERGY: -354.078586184 ITERATION: 236
ENERGY: -226.406379897 ITERATION: 237
ENERGY: -262.412702415 ITERATION: 237
ENERGY: -271.525688557 ITERATION: 238
ENERGY: -354.078586184 ITERATION: 238
ENERGY: -226.406379897 ITERATION: 239
ENERGY: -262.412702415 ITERATION: 239
ENERGY: -271.525688557 ITERATION: 240
ENERGY: -354.078586184 ITERATION: 240
ENERGY: -226.406379897 ITERATION: 241
ENERGY: -262.412702415 ITERATION: 241
ENERGY: -271.525688557 ITERATION: 242
ENERGY: -354.078586184 ITERATION: 242
ENERGY: -226.406379897 ITERATION: 243
ENERGY: -262.412702415 ITERATION: 243
ENERGY: -271.525688557 ITERATION: 244
ENERGY: -354.078586184 ITERATION: 244
ENERGY: -226.406379897 ITERATION: 245
ENERGY: -262.412702415 ITERATION: 245
ENERGY: -271.525688557 ITERATION: 246
ENERGY: -354.078586184 ITERATION: 246
ENERGY: -226.406379897 ITERATION: 247
ENERGY: -262.412702415 ITERATION: 247
ENERGY: -271.525688557 ITERATION: 248
ENERGY: -354.078586184 ITERATION: 248
ENERGY: -226.406379897 ITERATION: 249
ENERGY: -262.412702415 ITERATION: 249
ENERGY: -271.525688557 ITERATION: 250
ENERGY: -354.078586184 ITERATION: 250
ENERGY: -226.406379897 ITERATION: 251
ENERGY: -262.412702415 ITERATION: 251
ENERGY: -271.525688557 ITERATION: 252
ENERGY: -354.078586184 ITERATION: 252
ENERGY: -226.406379897 ITERATION: 253
ENERGY: -262.412702415 ITERATION: 253
ENERGY: -271.525688557 ITERATION: 254
ENERGY: -354.078586184 ITERATION: 254
ENERGY: -226.406379897 ITERATION: 255
ENERGY: -262.412702415 ITERATION: 255
ENERGY: -271.525688557 ITERATION: 256
ENERGY: -354.078586184 ITERATION: 256
ENERGY: -226.406379897 ITERATION: 257
ENERGY: -262.412702415 ITERATION: 257
ENERGY: -271.525688557 ITERATION: 258
ENERGY: -354.078586184 ITERATION: 258
ENERGY: -226.406379897 ITERATION: 259
ENERGY: -262.412702415 ITERATION: 259
ENERGY: -271.525688557 ITERATION: 260
ENERGY: -354.078586184 ITERATION: 260
ENERGY: -226.406379897 ITERATION: 261
ENERGY: -262.412702415 ITERATION: 261
ENERGY: -271.525688557 ITERATION: 262
ENERGY: -354.078586184 ITERATION: 262
ENERGY: -226.406379897 ITERATION: 263
ENERGY: -262.412702415 ITERATION: 263
ENERGY: -271.525688557 ITERATION: 264
ENERGY: -354.078586184 ITERATION: 264
ENERGY: -226.406379897 ITERATION: 265
ENERGY: -262.412702415 ITERATION: 265
ENERGY: -271.525688557 ITERATION: 266
ENERGY: -354.078586184 ITERATION: 266
ENERGY: -226.406379897 ITERATION: 267
ENERGY: -262.412702415 ITERATION: 267
ENERGY: -271.525688557 ITERATION: 268
ENERGY: -354.078586184 ITERATION: 268
ENERGY: -226.406379897 ITERATION: 269
ENERGY: -262.412702415 ITERATION: 269
ENERGY: -271.525688557 ITERATION: 270
ENERGY: -354.078586184 ITERATION: 270
ENERGY: -226.406379897 ITERATION: 271
ENERGY: -262.412702415 ITERATION: 271
ENERGY: -271.525688557 ITERATION: 272
ENERGY: -354.078586184 ITERATION: 272
ENERGY: -226.406379897 ITERATION: 273
ENERGY: -262.412702415 ITERATION: 273
ENERGY: -271.525688557 ITERATION: 274
ENERGY: -354.078586184 ITERATION: 274
ENERGY: -226.406379897 ITERATION: 275
ENERGY: -262.412702415 ITERATION: 275
ENERGY: -271.525688557 ITERATION: 276
ENERGY: -354.078586184 ITERATION: 276
ENERGY: -226.406379897 ITERATION: 277
ENERGY: -262.412702415 ITERATION: 277
ENERGY: -271.525688557 ITERATION: 278
ENERGY: -354.078586184 ITERATION: 278
ENERGY: -226.406379897 ITERATION: 279
ENERGY: -262.412702415 ITERATION: 279
ENERGY: -271.525688557 ITERATION: 280
ENERGY: -354.078586184 ITERATION: 280
ENERGY: -226.406379897 ITERATION: 281
ENERGY: -262.412702415 ITERATION: 281
ENERGY: -271.525688557 ITERATION: 282
ENERGY: -354.078586184 ITERATION: 282
ENERGY: -226.406379897 ITERATION: 283
ENERGY: -262.412702415 ITERATION: 283
ENERGY: -271.525688557 ITERATION: 284
ENERGY: -354.078586184 ITERATION: 284
ENERGY: -226.406379897 ITERATION: 285
ENERGY: -262.412702415 ITERATION: 285
ENERGY: -271.525688557 ITERATION: 286
ENERGY: -354.078586184 ITERATION: 286
ENERGY: -226.406379897 ITERATION: 287
ENERGY: -262.412702415 ITERATION: 287
ENERGY: -271.525688557 ITERATION: 288
ENERGY: -354.078586184 ITERATION: 288
ENERGY: -226.406379897 ITERATION: 289
ENERGY: -262.412702415 ITERATION: 289
ENERGY: -271.525688557 ITERATION: 290
ENERGY: -354.078586184 ITERATION: 290
ENERGY: -226.406379897 ITERATION: 291
ENERGY: -262.412702415 ITERATION: 291
ENERGY: -271.525688557 ITERATION: 292
ENERGY: -354.078586184 ITERATION: 292
ENERGY: -226.406379897 ITERATION: 293
ENERGY: -262.412702415 ITERATION: 293
ENERGY: -271.525688557 ITERATION: 294
ENERGY: -354.078586184 ITERATION: 294
ENERGY: -226.406379897 ITERATION: 295
ENERGY: -262.412702415 ITERATION: 295
ENERGY: -271.525688557 ITERATION: 296
ENERGY: -354.078586184 ITERATION: 296
ENERGY: -226.406379897 ITERATION: 297
ENERGY: -262.412702415 ITERATION: 297
ENERGY: -271.525688557 ITERATION: 298
ENERGY: -354.078586184 ITERATION: 298
ENERGY: -226.406379897 ITERATION: 299
ENERGY: -262.412702415 ITERATION: 299
ENERGY: -271.525688557 ITERATION: 300
ENERGY: -354.078586184 ITERATION: 300
ENERGY: -226.406379897 ITERATION: 301
ENERGY: -262.412702415 ITERATION: 301
ENERGY: -271.525688557 ITERATION: 302
ENERGY: -354.078586184 ITERATION: 302
ENERGY: -226.406379897 ITERATION: 303
ENERGY: -262.412702415 ITERATION: 303
ENERGY: -271.525688557 ITERATION: 304
ENERGY: -354.078586184 ITERATION: 304
ENERGY: -226.406379897 ITERATION: 305
ENERGY: -262.412702415 ITERATION: 305
ENERGY: -271.525688557 ITERATION: 306
ENERGY: -354.078586184 ITERATION: 306
ENERGY: -226.406379897 ITERATION: 307
ENERGY: -262.412702415 ITERATION: 307
ENERGY: -271.525688557 ITERATION: 308
ENERGY: -354.078586184 ITERATION: 308
ENERGY: -226.406379897 ITERATION: 309
ENERGY: -262.412702415 ITERATION: 309
ENERGY: -271.525688557 ITERATION: 310
ENERGY: -354.078586184 ITERATION: 310
ENERGY: -226.406379897 ITERATION: 311
ENERGY: -262.412702415 ITERATION: 311
ENERGY: -271.525688557 ITERATION: 312
ENERGY: -354.078586184 ITERATION: 312
ENERGY: -226.406379897 ITERATION: 313
ENERGY: -262.412702415 ITERATION: 313
ENERGY: -271.525688557 ITERATION: 314
ENERGY: -354.078586184 ITERATION: 314
ENERGY: -226.406379897 ITERATION: 315
ENERGY: -262.412702415 ITERATION: 315
ENERGY: -271.525688557 ITERATION: 316
ENERGY: -354.078586184 ITERATION: 316
ENERGY: -226.406379897 ITERATION: 317
ENERGY: -262.412702415 ITERATION: 317
ENERGY: -271.525688557 ITERATION: 318
ENERGY: -354.078586184 ITERATION: 318
ENERGY: -226.406379897 ITERATION: 319
ENERGY: -262.412702415 ITERATION: 319
ENERGY: -271.525688557 ITERATION: 320
ENERGY: -354.078586184 ITERATION: 320
ENERGY: -226.406379897 ITERATION: 321
ENERGY: -262.412702415 ITERATION: 321
ENERGY: -271.525688557 ITERATION: 322
ENERGY: -354.078586184 ITERATION: 322
ENERGY: -226.406379897 ITERATION: 323
ENERGY: -262.412702415 ITERATION: 323
ENERGY: -271.525688557 ITERATION: 324
ENERGY: -354.078586184 ITERATION: 324
ENERGY: -226.406379897 ITERATION: 325
ENERGY: -262.412702415 ITERATION: 325
ENERGY: -271.525688557 ITERATION: 326
ENERGY: -354.078586184 ITERATION: 326
ENERGY: -226.406379897 ITERATION: 327
ENERGY: -262.412702415 ITERATION: 327
ENERGY: -271.525688557 ITERATION: 328
ENERGY: -354.078586184 ITERATION: 328
ENERGY: -226.406379897 ITERATION: 329
ENERGY: -262.412702415 ITERATION: 329
ENERGY: -271.525688557 ITERATION: 330
ENERGY: -354.078586184 ITERATION: 330
ENERGY: -226.406379897 ITERATION: 331
ENERGY: -262.412702415 ITERATION: 331
ENERGY: -271.525688557 ITERATION: 332
ENERGY: -354.078586184 ITERATION: 332
ENERGY: -226.406379897 ITERATION: 333
ENERGY: -262.412702415 ITERATION: 333
ENERGY: -271.525688557 ITERATION: 334
ENERGY: -354.078586184 ITERATION: 334
ENERGY: -226.406379897 ITERATION: 335
ENERGY: -262.412702415 ITERATION: 335
ENERGY: -271.525688557 ITERATION: 336
ENERGY: -354.078586184 ITERATION: 336
ENERGY: -226.406379897 ITERATION: 337
ENERGY: -262.412702415 ITERATION: 337
ENERGY: -271.525688557 ITERATION: 338
ENERGY: -354.078586184 ITERATION: 338
ENERGY: -226.406379897 ITERATION: 339
ENERGY: -262.412702415 ITERATION: 339
ENERGY: -271.525688557 ITERATION: 340
ENERGY: -354.078586184 ITERATION: 340
ENERGY: -226.406379897 ITERATION: 341
ENERGY: -262.412702415 ITERATION: 341
ENERGY: -271.525688557 ITERATION: 342
ENERGY: -354.078586184 ITERATION: 342
ENERGY: -226.406379897 ITERATION: 343
ENERGY: -262.412702415 ITERATION: 343
ENERGY: -271.525688557 ITERATION: 344
ENERGY: -354.078586184 ITERATION: 344
ENERGY: -226.406379897 ITERATION: 345
ENERGY: -262.412702415 ITERATION: 345
ENERGY: -271.525688557 ITERATION: 346
ENERGY: -354.078586184 ITERATION: 346
ENERGY: -226.406379897 ITERATION: 347
ENERGY: -262.412702415 ITERATION: 347
ENERGY: -271.525688557 ITERATION: 348
ENERGY: -354.078586184 ITERATION: 348
ENERGY: -226.406379897 ITERATION: 349
ENERGY: -262.412702415 ITERATION: 349
ENERGY: -271.525688557 ITERATION: 350
ENERGY: -354.078586184 ITERATION: 350
ENERGY: -226.406379897 ITERATION: 351
ENERGY: -262.412702415 ITERATION: 351
ENERGY: -271.525688557 ITERATION: 352
ENERGY: -354.078586184 ITERATION: 352
ENERGY: -226.406379897 ITERATION: 353
ENERGY: -262.412702415 ITERATION: 353
ENERGY: -271.525688557 ITERATION: 354
ENERGY: -354.078586184 ITERATION: 354
ENERGY: -226.406379897 ITERATION: 355
ENERGY: -262.412702415 ITERATION: 355
ENERGY: -271.525688557 ITERATION: 356
ENERGY: -354.078586184 ITERATION: 356
ENERGY: -226.406379897 ITERATION: 357
ENERGY: -262.412702415 ITERATION: 357
ENERGY: -271.525688557 ITERATION: 358
ENERGY: -354.078586184 ITERATION: 358
ENERGY: -226.406379897 ITERATION: 359
ENERGY: -262.412702415 ITERATION: 359
ENERGY: -271.525688557 ITERATION: 360
ENERGY: -354.078586184 ITERATION: 360
ENERGY: -226.406379897 ITERATION: 361
ENERGY: -262.412702415 ITERATION: 361
ENERGY: -271.525688557 ITERATION: 362
ENERGY: -354.078586184 ITERATION: 362
ENERGY: -226.406379897 ITERATION: 363
ENERGY: -262.412702415 ITERATION: 363
ENERGY: -271.525688557 ITERATION: 364
ENERGY: -354.078586184 ITERATION: 364
ENERGY: -226.406379897 ITERATION: 365
ENERGY: -262.412702415 ITERATION: 365
ENERGY: -271.525688557 ITERATION: 366
ENERGY: -354.078586184 ITERATION: 366
ENERGY: -226.406379897 ITERATION: 367
ENERGY: -262.412702415 ITERATION: 367
ENERGY: -271.525688557 ITERATION: 368
ENERGY: -354.078586184 ITERATION: 368
ENERGY: -226.406379897 ITERATION: 369
ENERGY: -262.412702415 ITERATION: 369
ENERGY: -271.525688557 ITERATION: 370
ENERGY: -354.078586184 ITERATION: 370
ENERGY: -226.406379897 ITERATION: 371
ENERGY: -262.412702415 ITERATION: 371
ENERGY: -271.525688557 ITERATION: 372
ENERGY: -354.078586184 ITERATION: 372
ENERGY: -226.406379897 ITERATION: 373
ENERGY: -262.412702415 ITERATION: 373
ENERGY: -271.525688557 ITERATION: 374
ENERGY: -354.078586184 ITERATION: 374
ENERGY: -226.406379897 ITERATION: 375
ENERGY: -262.412702415 ITERATION: 375
ENERGY: -271.525688557 ITERATION: 376
ENERGY: -354.078586184 ITERATION: 376
ENERGY: -226.406379897 ITERATION: 377
ENERGY: -262.412702415 ITERATION: 377
ENERGY: -271.525688557 ITERATION: 378
ENERGY: -354.078586184 ITERATION: 378
ENERGY: -226.406379897 ITERATION: 379
ENERGY: -262.412702415 ITERATION: 379
ENERGY: -271.525688557 ITERATION: 380
ENERGY: -354.078586184 ITERATION: 380
ENERGY: -226.406379897 ITERATION: 381
ENERGY: -262.412702415 ITERATION: 381
ENERGY: -271.525688557 ITERATION: 382
ENERGY: -354.078586184 ITERATION: 382
ENERGY: -226.406379897 ITERATION: 383
ENERGY: -262.412702415 ITERATION: 383
ENERGY: -271.525688557 ITERATION: 384
ENERGY: -354.078586184 ITERATION: 384
ENERGY: -226.406379897 ITERATION: 385
ENERGY: -262.412702415 ITERATION: 385
ENERGY: -271.525688557 ITERATION: 386
ENERGY: -354.078586184 ITERATION: 386
ENERGY: -226.406379897 ITERATION: 387
ENERGY: -262.412702415 ITERATION: 387
ENERGY: -271.525688557 ITERATION: 388
ENERGY: -354.078586184 ITERATION: 388
ENERGY: -226.406379897 ITERATION: 389
ENERGY: -262.412702415 ITERATION: 389
ENERGY: -271.525688557 ITERATION: 390
ENERGY: -354.078586184 ITERATION: 390
ENERGY: -226.406379897 ITERATION: 391
ENERGY: -262.412702415 ITERATION: 391
ENERGY: -271.525688557 ITERATION: 392
ENERGY: -354.078586184 ITERATION: 392
ENERGY: -226.406379897 ITERATION: 393
ENERGY: -262.412702415 ITERATION: 393